n -t * -s 0  -x 0 -y 0 -Z 0 -z 20  -v circle -c black
n -t * -s 1  -x 0 -y 60 -Z 0 -z 20  -v circle -c black
n -t * -s 2  -x 40 -y 60 -Z 0 -z 20  -v circle -c black
n -t * -s 3  -x 40 -y 120 -Z 0 -z 20  -v circle -c black
n -t * -s 4  -x 0 -y 120 -Z 0 -z 20  -v circle -c black
n -t * -s 5  -x 0 -y 180 -Z 0 -z 20  -v circle -c black
n -t * -s 6  -x 40 -y 180 -Z 0 -z 20  -v circle -c black
n -t * -s 7  -x 40 -y 240 -Z 0 -z 20  -v circle -c black
V -t * -v 1.0a5 -a 0
W -t * -x 1160 -y 740
A -t * -n 1 -p 0 -o 0x7fffffff -c 30 -a 1
A -t * -h 1 -m 1073741823 -s 0
v -t 0.1 -e sim_annotation 0.1 1 5 sending message 1
+ -t 0.100000000 -s 5 -d -1 -p message -e 100 -c 2 -a 0 -i 0 -k AGT 
- -t 0.100000000 -s 5 -d -1 -p message -e 100 -c 2 -a 0 -i 0 -k AGT
h -t 0.100000000 -s 5 -d -1 -p message -e 100 -c 2 -a 0 -i 0 -k AGT
+ -t 0.100535000 -s 5 -d -1 -p message -e 158 -c 2 -a 0 -i 0 -k MAC 
- -t 0.100535000 -s 5 -d -1 -p message -e 158 -c 2 -a 0 -i 0 -k MAC
h -t 0.100535000 -s 5 -d -1 -p message -e 158 -c 2 -a 0 -i 0 -k MAC
r -t 0.101799133 -s 6 -d -1 -p message -e 100 -c 2 -a 0 -i 0 -k MAC
r -t 0.101799200 -s 4 -d -1 -p message -e 100 -c 2 -a 0 -i 0 -k MAC
r -t 0.101799240 -s 3 -d -1 -p message -e 100 -c 2 -a 0 -i 0 -k MAC
r -t 0.101799240 -s 7 -d -1 -p message -e 100 -c 2 -a 0 -i 0 -k MAC
r -t 0.101799400 -s 1 -d -1 -p message -e 100 -c 2 -a 0 -i 0 -k MAC
r -t 0.101799422 -s 2 -d -1 -p message -e 100 -c 2 -a 0 -i 0 -k MAC
r -t 0.101799600 -s 0 -d -1 -p message -e 100 -c 2 -a 0 -i 0 -k MAC
r -t 0.101824133 -s 6 -d -1 -p message -e 100 -c 2 -a 0 -i 0 -k AGT
v -t 0.101824133333333 -e sim_annotation 0.101824133333333 2 6 received {1:emergency message A} from 5
v -t 0.101824133333333 -e sim_annotation 0.101824133333333 3 6 sending message 1
+ -t 0.101824133 -s 6 -d -1 -p message -e 100 -c 2 -a 0 -i 1 -k AGT 
- -t 0.101824133 -s 6 -d -1 -p message -e 100 -c 2 -a 0 -i 1 -k AGT
h -t 0.101824133 -s 6 -d -1 -p message -e 100 -c 2 -a 0 -i 1 -k AGT
r -t 0.101824200 -s 4 -d -1 -p message -e 100 -c 2 -a 0 -i 0 -k AGT
v -t 0.1018242 -e sim_annotation 0.1018242 4 4 received {1:emergency message A} from 5
v -t 0.1018242 -e sim_annotation 0.1018242 5 4 sending message 1
+ -t 0.101824200 -s 4 -d -1 -p message -e 100 -c 2 -a 0 -i 2 -k AGT 
- -t 0.101824200 -s 4 -d -1 -p message -e 100 -c 2 -a 0 -i 2 -k AGT
h -t 0.101824200 -s 4 -d -1 -p message -e 100 -c 2 -a 0 -i 2 -k AGT
r -t 0.101824240 -s 3 -d -1 -p message -e 100 -c 2 -a 0 -i 0 -k AGT
v -t 0.101824240370085 -e sim_annotation 0.101824240370085 6 3 received {1:emergency message A} from 5
v -t 0.101824240370085 -e sim_annotation 0.101824240370085 7 3 sending message 1
+ -t 0.101824240 -s 3 -d -1 -p message -e 100 -c 2 -a 0 -i 3 -k AGT 
- -t 0.101824240 -s 3 -d -1 -p message -e 100 -c 2 -a 0 -i 3 -k AGT
h -t 0.101824240 -s 3 -d -1 -p message -e 100 -c 2 -a 0 -i 3 -k AGT
r -t 0.101824240 -s 7 -d -1 -p message -e 100 -c 2 -a 0 -i 0 -k AGT
v -t 0.101824240370085 -e sim_annotation 0.101824240370085 8 7 received {1:emergency message A} from 5
v -t 0.101824240370085 -e sim_annotation 0.101824240370085 9 7 sending message 1
+ -t 0.101824240 -s 7 -d -1 -p message -e 100 -c 2 -a 0 -i 4 -k AGT 
- -t 0.101824240 -s 7 -d -1 -p message -e 100 -c 2 -a 0 -i 4 -k AGT
h -t 0.101824240 -s 7 -d -1 -p message -e 100 -c 2 -a 0 -i 4 -k AGT
r -t 0.101824400 -s 1 -d -1 -p message -e 100 -c 2 -a 0 -i 0 -k AGT
v -t 0.1018244 -e sim_annotation 0.1018244 10 1 received {1:emergency message A} from 5
v -t 0.1018244 -e sim_annotation 0.1018244 11 1 sending message 1
+ -t 0.101824400 -s 1 -d -1 -p message -e 100 -c 2 -a 0 -i 5 -k AGT 
- -t 0.101824400 -s 1 -d -1 -p message -e 100 -c 2 -a 0 -i 5 -k AGT
h -t 0.101824400 -s 1 -d -1 -p message -e 100 -c 2 -a 0 -i 5 -k AGT
r -t 0.101824422 -s 2 -d -1 -p message -e 100 -c 2 -a 0 -i 0 -k AGT
v -t 0.101824421637021 -e sim_annotation 0.101824421637021 12 2 received {1:emergency message A} from 5
v -t 0.101824421637021 -e sim_annotation 0.101824421637021 13 2 sending message 1
+ -t 0.101824422 -s 2 -d -1 -p message -e 100 -c 2 -a 0 -i 6 -k AGT 
- -t 0.101824422 -s 2 -d -1 -p message -e 100 -c 2 -a 0 -i 6 -k AGT
h -t 0.101824422 -s 2 -d -1 -p message -e 100 -c 2 -a 0 -i 6 -k AGT
r -t 0.101824600 -s 0 -d -1 -p message -e 100 -c 2 -a 0 -i 0 -k AGT
v -t 0.1018246 -e sim_annotation 0.1018246 14 0 received {1:emergency message A} from 5
v -t 0.1018246 -e sim_annotation 0.1018246 15 0 sending message 1
+ -t 0.101824600 -s 0 -d -1 -p message -e 100 -c 2 -a 0 -i 7 -k AGT 
- -t 0.101824600 -s 0 -d -1 -p message -e 100 -c 2 -a 0 -i 7 -k AGT
h -t 0.101824600 -s 0 -d -1 -p message -e 100 -c 2 -a 0 -i 7 -k AGT
+ -t 0.101899240 -s 7 -d -1 -p message -e 158 -c 2 -a 0 -i 4 -k MAC 
- -t 0.101899240 -s 7 -d -1 -p message -e 158 -c 2 -a 0 -i 4 -k MAC
h -t 0.101899240 -s 7 -d -1 -p message -e 158 -c 2 -a 0 -i 4 -k MAC
r -t 0.103163440 -s 6 -d -1 -p message -e 100 -c 2 -a 0 -i 4 -k MAC
r -t 0.103163481 -s 5 -d -1 -p message -e 100 -c 2 -a 0 -i 4 -k MAC
r -t 0.103163640 -s 3 -d -1 -p message -e 100 -c 2 -a 0 -i 4 -k MAC
r -t 0.103163662 -s 4 -d -1 -p message -e 100 -c 2 -a 0 -i 4 -k MAC
r -t 0.103163840 -s 2 -d -1 -p message -e 100 -c 2 -a 0 -i 4 -k MAC
r -t 0.103163855 -s 1 -d -1 -p message -e 100 -c 2 -a 0 -i 4 -k MAC
r -t 0.103164051 -s 0 -d -1 -p message -e 100 -c 2 -a 0 -i 4 -k MAC
r -t 0.103188440 -s 6 -d -1 -p message -e 100 -c 2 -a 0 -i 4 -k AGT
v -t 0.103188440370085 -e sim_annotation 0.103188440370085 16 6 received redundant message 1 from 7
r -t 0.103188481 -s 5 -d -1 -p message -e 100 -c 2 -a 0 -i 4 -k AGT
v -t 0.10318848074017 -e sim_annotation 0.10318848074017 17 5 received redundant message 1 from 7
r -t 0.103188640 -s 3 -d -1 -p message -e 100 -c 2 -a 0 -i 4 -k AGT
v -t 0.103188640370085 -e sim_annotation 0.103188640370085 18 3 received redundant message 1 from 7
r -t 0.103188662 -s 4 -d -1 -p message -e 100 -c 2 -a 0 -i 4 -k AGT
v -t 0.103188662007106 -e sim_annotation 0.103188662007106 19 4 received redundant message 1 from 7
r -t 0.103188840 -s 2 -d -1 -p message -e 100 -c 2 -a 0 -i 4 -k AGT
v -t 0.103188840370085 -e sim_annotation 0.103188840370085 20 2 received redundant message 1 from 7
r -t 0.103188855 -s 1 -d -1 -p message -e 100 -c 2 -a 0 -i 4 -k AGT
v -t 0.103188855006382 -e sim_annotation 0.103188855006382 21 1 received redundant message 1 from 7
r -t 0.103189051 -s 0 -d -1 -p message -e 100 -c 2 -a 0 -i 4 -k AGT
v -t 0.103189051405089 -e sim_annotation 0.103189051405089 22 0 received redundant message 1 from 7
+ -t 0.103373855 -s 1 -d -1 -p message -e 158 -c 2 -a 0 -i 5 -k MAC 
- -t 0.103373855 -s 1 -d -1 -p message -e 158 -c 2 -a 0 -i 5 -k MAC
h -t 0.103373855 -s 1 -d -1 -p message -e 158 -c 2 -a 0 -i 5 -k MAC
r -t 0.104637988 -s 2 -d -1 -p message -e 100 -c 2 -a 0 -i 5 -k MAC
r -t 0.104638055 -s 0 -d -1 -p message -e 100 -c 2 -a 0 -i 5 -k MAC
r -t 0.104638055 -s 4 -d -1 -p message -e 100 -c 2 -a 0 -i 5 -k MAC
r -t 0.104638095 -s 3 -d -1 -p message -e 100 -c 2 -a 0 -i 5 -k MAC
r -t 0.104638255 -s 5 -d -1 -p message -e 100 -c 2 -a 0 -i 5 -k MAC
r -t 0.104638277 -s 6 -d -1 -p message -e 100 -c 2 -a 0 -i 5 -k MAC
r -t 0.104638470 -s 7 -d -1 -p message -e 100 -c 2 -a 0 -i 5 -k MAC
r -t 0.104662988 -s 2 -d -1 -p message -e 100 -c 2 -a 0 -i 5 -k AGT
v -t 0.104662988339716 -e sim_annotation 0.104662988339716 23 2 received redundant message 1 from 1
r -t 0.104663055 -s 0 -d -1 -p message -e 100 -c 2 -a 0 -i 5 -k AGT
v -t 0.104663055006382 -e sim_annotation 0.104663055006382 24 0 received redundant message 1 from 1
r -t 0.104663055 -s 4 -d -1 -p message -e 100 -c 2 -a 0 -i 5 -k AGT
v -t 0.104663055006382 -e sim_annotation 0.104663055006382 25 4 received redundant message 1 from 1
r -t 0.104663095 -s 3 -d -1 -p message -e 100 -c 2 -a 0 -i 5 -k AGT
v -t 0.104663095376467 -e sim_annotation 0.104663095376467 26 3 received redundant message 1 from 1
r -t 0.104663255 -s 5 -d -1 -p message -e 100 -c 2 -a 0 -i 5 -k AGT
v -t 0.104663255006382 -e sim_annotation 0.104663255006382 27 5 received redundant message 1 from 1
r -t 0.104663277 -s 6 -d -1 -p message -e 100 -c 2 -a 0 -i 5 -k AGT
v -t 0.104663276643404 -e sim_annotation 0.104663276643404 28 6 received redundant message 1 from 1
r -t 0.104663470 -s 7 -d -1 -p message -e 100 -c 2 -a 0 -i 5 -k AGT
v -t 0.104663469642679 -e sim_annotation 0.104663469642679 29 7 received redundant message 1 from 1
+ -t 0.104727988 -s 2 -d -1 -p message -e 158 -c 2 -a 0 -i 6 -k MAC 
- -t 0.104727988 -s 2 -d -1 -p message -e 158 -c 2 -a 0 -i 6 -k MAC
h -t 0.104727988 -s 2 -d -1 -p message -e 158 -c 2 -a 0 -i 6 -k MAC
r -t 0.105992122 -s 1 -d -1 -p message -e 100 -c 2 -a 0 -i 6 -k MAC
r -t 0.105992188 -s 3 -d -1 -p message -e 100 -c 2 -a 0 -i 6 -k MAC
r -t 0.105992229 -s 4 -d -1 -p message -e 100 -c 2 -a 0 -i 6 -k MAC
r -t 0.105992229 -s 0 -d -1 -p message -e 100 -c 2 -a 0 -i 6 -k MAC
r -t 0.105992388 -s 6 -d -1 -p message -e 100 -c 2 -a 0 -i 6 -k MAC
r -t 0.105992410 -s 5 -d -1 -p message -e 100 -c 2 -a 0 -i 6 -k MAC
r -t 0.105992588 -s 7 -d -1 -p message -e 100 -c 2 -a 0 -i 6 -k MAC
r -t 0.106017122 -s 1 -d -1 -p message -e 100 -c 2 -a 0 -i 6 -k AGT
v -t 0.106017121673049 -e sim_annotation 0.106017121673049 30 1 received redundant message 1 from 2
r -t 0.106017188 -s 3 -d -1 -p message -e 100 -c 2 -a 0 -i 6 -k AGT
v -t 0.106017188339716 -e sim_annotation 0.106017188339716 31 3 received redundant message 1 from 2
r -t 0.106017229 -s 4 -d -1 -p message -e 100 -c 2 -a 0 -i 6 -k AGT
v -t 0.106017228709801 -e sim_annotation 0.106017228709801 32 4 received redundant message 1 from 2
r -t 0.106017229 -s 0 -d -1 -p message -e 100 -c 2 -a 0 -i 6 -k AGT
v -t 0.106017228709801 -e sim_annotation 0.106017228709801 33 0 received redundant message 1 from 2
r -t 0.106017388 -s 6 -d -1 -p message -e 100 -c 2 -a 0 -i 6 -k AGT
v -t 0.106017388339716 -e sim_annotation 0.106017388339716 34 6 received redundant message 1 from 2
r -t 0.106017410 -s 5 -d -1 -p message -e 100 -c 2 -a 0 -i 6 -k AGT
v -t 0.106017409976737 -e sim_annotation 0.106017409976737 35 5 received redundant message 1 from 2
r -t 0.106017588 -s 7 -d -1 -p message -e 100 -c 2 -a 0 -i 6 -k AGT
v -t 0.106017588339716 -e sim_annotation 0.106017588339716 36 7 received redundant message 1 from 2
+ -t 0.106082229 -s 0 -d -1 -p message -e 158 -c 2 -a 0 -i 7 -k MAC 
- -t 0.106082229 -s 0 -d -1 -p message -e 158 -c 2 -a 0 -i 7 -k MAC
h -t 0.106082229 -s 0 -d -1 -p message -e 158 -c 2 -a 0 -i 7 -k MAC
r -t 0.107346429 -s 1 -d -1 -p message -e 100 -c 2 -a 0 -i 7 -k MAC
r -t 0.107346469 -s 2 -d -1 -p message -e 100 -c 2 -a 0 -i 7 -k MAC
r -t 0.107346629 -s 4 -d -1 -p message -e 100 -c 2 -a 0 -i 7 -k MAC
r -t 0.107346650 -s 3 -d -1 -p message -e 100 -c 2 -a 0 -i 7 -k MAC
r -t 0.107346829 -s 5 -d -1 -p message -e 100 -c 2 -a 0 -i 7 -k MAC
r -t 0.107346843 -s 6 -d -1 -p message -e 100 -c 2 -a 0 -i 7 -k MAC
r -t 0.107347040 -s 7 -d -1 -p message -e 100 -c 2 -a 0 -i 7 -k MAC
r -t 0.107371429 -s 1 -d -1 -p message -e 100 -c 2 -a 0 -i 7 -k AGT
v -t 0.107371428709801 -e sim_annotation 0.107371428709801 37 1 received redundant message 1 from 0
r -t 0.107371469 -s 2 -d -1 -p message -e 100 -c 2 -a 0 -i 7 -k AGT
v -t 0.107371469079886 -e sim_annotation 0.107371469079886 38 2 received redundant message 1 from 0
r -t 0.107371629 -s 4 -d -1 -p message -e 100 -c 2 -a 0 -i 7 -k AGT
v -t 0.107371628709801 -e sim_annotation 0.107371628709801 39 4 received redundant message 1 from 0
r -t 0.107371650 -s 3 -d -1 -p message -e 100 -c 2 -a 0 -i 7 -k AGT
v -t 0.107371650346822 -e sim_annotation 0.107371650346822 40 3 received redundant message 1 from 0
r -t 0.107371829 -s 5 -d -1 -p message -e 100 -c 2 -a 0 -i 7 -k AGT
v -t 0.107371828709801 -e sim_annotation 0.107371828709801 41 5 received redundant message 1 from 0
r -t 0.107371843 -s 6 -d -1 -p message -e 100 -c 2 -a 0 -i 7 -k AGT
v -t 0.107371843346098 -e sim_annotation 0.107371843346098 42 6 received redundant message 1 from 0
r -t 0.107372040 -s 7 -d -1 -p message -e 100 -c 2 -a 0 -i 7 -k AGT
v -t 0.107372039744805 -e sim_annotation 0.107372039744805 43 7 received redundant message 1 from 0
+ -t 0.107456629 -s 4 -d -1 -p message -e 158 -c 2 -a 0 -i 2 -k MAC 
- -t 0.107456629 -s 4 -d -1 -p message -e 158 -c 2 -a 0 -i 2 -k MAC
h -t 0.107456629 -s 4 -d -1 -p message -e 158 -c 2 -a 0 -i 2 -k MAC
r -t 0.108720762 -s 3 -d -1 -p message -e 100 -c 2 -a 0 -i 2 -k MAC
r -t 0.108720829 -s 1 -d -1 -p message -e 100 -c 2 -a 0 -i 2 -k MAC
r -t 0.108720829 -s 5 -d -1 -p message -e 100 -c 2 -a 0 -i 2 -k MAC
r -t 0.108720869 -s 2 -d -1 -p message -e 100 -c 2 -a 0 -i 2 -k MAC
r -t 0.108720869 -s 6 -d -1 -p message -e 100 -c 2 -a 0 -i 2 -k MAC
r -t 0.108721029 -s 0 -d -1 -p message -e 100 -c 2 -a 0 -i 2 -k MAC
r -t 0.108721050 -s 7 -d -1 -p message -e 100 -c 2 -a 0 -i 2 -k MAC
r -t 0.108745762 -s 3 -d -1 -p message -e 100 -c 2 -a 0 -i 2 -k AGT
v -t 0.108745762043134 -e sim_annotation 0.108745762043134 44 3 received redundant message 1 from 4
r -t 0.108745829 -s 1 -d -1 -p message -e 100 -c 2 -a 0 -i 2 -k AGT
v -t 0.108745828709801 -e sim_annotation 0.108745828709801 45 1 received redundant message 1 from 4
r -t 0.108745829 -s 5 -d -1 -p message -e 100 -c 2 -a 0 -i 2 -k AGT
v -t 0.108745828709801 -e sim_annotation 0.108745828709801 46 5 received redundant message 1 from 4
r -t 0.108745869 -s 2 -d -1 -p message -e 100 -c 2 -a 0 -i 2 -k AGT
v -t 0.108745869079886 -e sim_annotation 0.108745869079886 47 2 received redundant message 1 from 4
r -t 0.108745869 -s 6 -d -1 -p message -e 100 -c 2 -a 0 -i 2 -k AGT
v -t 0.108745869079886 -e sim_annotation 0.108745869079886 48 6 received redundant message 1 from 4
r -t 0.108746029 -s 0 -d -1 -p message -e 100 -c 2 -a 0 -i 2 -k AGT
v -t 0.108746028709801 -e sim_annotation 0.108746028709801 49 0 received redundant message 1 from 4
r -t 0.108746050 -s 7 -d -1 -p message -e 100 -c 2 -a 0 -i 2 -k AGT
v -t 0.108746050346822 -e sim_annotation 0.108746050346822 50 7 received redundant message 1 from 4
+ -t 0.108790762 -s 3 -d -1 -p message -e 158 -c 2 -a 0 -i 3 -k MAC 
- -t 0.108790762 -s 3 -d -1 -p message -e 158 -c 2 -a 0 -i 3 -k MAC
h -t 0.108790762 -s 3 -d -1 -p message -e 158 -c 2 -a 0 -i 3 -k MAC
r -t 0.110054895 -s 4 -d -1 -p message -e 100 -c 2 -a 0 -i 3 -k MAC
r -t 0.110054962 -s 2 -d -1 -p message -e 100 -c 2 -a 0 -i 3 -k MAC
r -t 0.110054962 -s 6 -d -1 -p message -e 100 -c 2 -a 0 -i 3 -k MAC
r -t 0.110055002 -s 5 -d -1 -p message -e 100 -c 2 -a 0 -i 3 -k MAC
r -t 0.110055002 -s 1 -d -1 -p message -e 100 -c 2 -a 0 -i 3 -k MAC
r -t 0.110055162 -s 7 -d -1 -p message -e 100 -c 2 -a 0 -i 3 -k MAC
r -t 0.110055184 -s 0 -d -1 -p message -e 100 -c 2 -a 0 -i 3 -k MAC
r -t 0.110079895 -s 4 -d -1 -p message -e 100 -c 2 -a 0 -i 3 -k AGT
v -t 0.110079895376467 -e sim_annotation 0.110079895376467 51 4 received redundant message 1 from 3
r -t 0.110079962 -s 2 -d -1 -p message -e 100 -c 2 -a 0 -i 3 -k AGT
v -t 0.110079962043134 -e sim_annotation 0.110079962043134 52 2 received redundant message 1 from 3
r -t 0.110079962 -s 6 -d -1 -p message -e 100 -c 2 -a 0 -i 3 -k AGT
v -t 0.110079962043134 -e sim_annotation 0.110079962043134 53 6 received redundant message 1 from 3
r -t 0.110080002 -s 5 -d -1 -p message -e 100 -c 2 -a 0 -i 3 -k AGT
v -t 0.110080002413219 -e sim_annotation 0.110080002413219 54 5 received redundant message 1 from 3
r -t 0.110080002 -s 1 -d -1 -p message -e 100 -c 2 -a 0 -i 3 -k AGT
v -t 0.110080002413219 -e sim_annotation 0.110080002413219 55 1 received redundant message 1 from 3
r -t 0.110080162 -s 7 -d -1 -p message -e 100 -c 2 -a 0 -i 3 -k AGT
v -t 0.110080162043134 -e sim_annotation 0.110080162043134 56 7 received redundant message 1 from 3
r -t 0.110080184 -s 0 -d -1 -p message -e 100 -c 2 -a 0 -i 3 -k AGT
v -t 0.110080183680155 -e sim_annotation 0.110080183680155 57 0 received redundant message 1 from 3
+ -t 0.110344962 -s 6 -d -1 -p message -e 158 -c 2 -a 0 -i 1 -k MAC 
- -t 0.110344962 -s 6 -d -1 -p message -e 158 -c 2 -a 0 -i 1 -k MAC
h -t 0.110344962 -s 6 -d -1 -p message -e 158 -c 2 -a 0 -i 1 -k MAC
r -t 0.111609095 -s 5 -d -1 -p message -e 100 -c 2 -a 0 -i 1 -k MAC
r -t 0.111609162 -s 3 -d -1 -p message -e 100 -c 2 -a 0 -i 1 -k MAC
r -t 0.111609162 -s 7 -d -1 -p message -e 100 -c 2 -a 0 -i 1 -k MAC
r -t 0.111609202 -s 4 -d -1 -p message -e 100 -c 2 -a 0 -i 1 -k MAC
r -t 0.111609362 -s 2 -d -1 -p message -e 100 -c 2 -a 0 -i 1 -k MAC
r -t 0.111609384 -s 1 -d -1 -p message -e 100 -c 2 -a 0 -i 1 -k MAC
r -t 0.111609577 -s 0 -d -1 -p message -e 100 -c 2 -a 0 -i 1 -k MAC
r -t 0.111634095 -s 5 -d -1 -p message -e 100 -c 2 -a 0 -i 1 -k AGT
v -t 0.111634095376467 -e sim_annotation 0.111634095376467 58 5 received redundant message 1 from 6
r -t 0.111634162 -s 3 -d -1 -p message -e 100 -c 2 -a 0 -i 1 -k AGT
v -t 0.111634162043134 -e sim_annotation 0.111634162043134 59 3 received redundant message 1 from 6
r -t 0.111634162 -s 7 -d -1 -p message -e 100 -c 2 -a 0 -i 1 -k AGT
v -t 0.111634162043134 -e sim_annotation 0.111634162043134 60 7 received redundant message 1 from 6
r -t 0.111634202 -s 4 -d -1 -p message -e 100 -c 2 -a 0 -i 1 -k AGT
v -t 0.111634202413219 -e sim_annotation 0.111634202413219 61 4 received redundant message 1 from 6
r -t 0.111634362 -s 2 -d -1 -p message -e 100 -c 2 -a 0 -i 1 -k AGT
v -t 0.111634362043134 -e sim_annotation 0.111634362043134 62 2 received redundant message 1 from 6
r -t 0.111634384 -s 1 -d -1 -p message -e 100 -c 2 -a 0 -i 1 -k AGT
v -t 0.111634383680155 -e sim_annotation 0.111634383680155 63 1 received redundant message 1 from 6
r -t 0.111634577 -s 0 -d -1 -p message -e 100 -c 2 -a 0 -i 1 -k AGT
v -t 0.111634576679431 -e sim_annotation 0.111634576679431 64 0 received redundant message 1 from 6
