n -t * -s 0  -x 1000 -y 100 -Z 0 -z 100  -v circle -c black
n -t * -s 1  -x 800 -y 100 -Z 0 -z 100  -v circle -c black
n -t * -s 2  -x 600 -y 100 -Z 0 -z 100  -v circle -c black
n -t * -s 3  -x 400 -y 100 -Z 0 -z 100  -v circle -c black
n -t * -s 4  -x 200 -y 100 -Z 0 -z 100  -v circle -c black
V -t * -v 1.0a5 -a 0
W -t * -x 1500 -y 1500
A -t * -n 1 -p 0 -o 0x7fffffff -c 30 -a 1
A -t * -h 1 -m 1073741823 -s 0
v -t 0.1 -e sim_annotation 0.1 1 0 sending message 1
+ -t 0.100000000 -s 0 -d -1 -p message -e 100 -c 2 -a 0 -i 0 -k AGT 
- -t 0.100000000 -s 0 -d -1 -p message -e 100 -c 2 -a 0 -i 0 -k AGT
h -t 0.100000000 -s 0 -d -1 -p message -e 100 -c 2 -a 0 -i 0 -k AGT
+ -t 0.100535000 -s 0 -d -1 -p message -e 158 -c 2 -a 0 -i 0 -k MAC 
- -t 0.100535000 -s 0 -d -1 -p message -e 158 -c 2 -a 0 -i 0 -k MAC
h -t 0.100535000 -s 0 -d -1 -p message -e 158 -c 2 -a 0 -i 0 -k MAC
r -t 0.101799667 -s 1 -d -1 -p message -e 100 -c 2 -a 0 -i 0 -k MAC
r -t 0.101824667 -s 1 -d -1 -p message -e 100 -c 2 -a 0 -i 0 -k AGT
v -t 0.101824666666667 -e sim_annotation 0.101824666666667 2 1 received {1:emergency message A} from 0
v -t 0.101824666666667 -e sim_annotation 0.101824666666667 3 1 sending message 1
+ -t 0.101824667 -s 1 -d -1 -p message -e 100 -c 2 -a 0 -i 1 -k AGT 
- -t 0.101824667 -s 1 -d -1 -p message -e 100 -c 2 -a 0 -i 1 -k AGT
h -t 0.101824667 -s 1 -d -1 -p message -e 100 -c 2 -a 0 -i 1 -k AGT
+ -t 0.102459667 -s 1 -d -1 -p message -e 158 -c 2 -a 0 -i 1 -k MAC 
- -t 0.102459667 -s 1 -d -1 -p message -e 158 -c 2 -a 0 -i 1 -k MAC
h -t 0.102459667 -s 1 -d -1 -p message -e 158 -c 2 -a 0 -i 1 -k MAC
r -t 0.103724333 -s 2 -d -1 -p message -e 100 -c 2 -a 0 -i 1 -k MAC
r -t 0.103724333 -s 0 -d -1 -p message -e 100 -c 2 -a 0 -i 1 -k MAC
r -t 0.103749333 -s 2 -d -1 -p message -e 100 -c 2 -a 0 -i 1 -k AGT
v -t 0.103749333333333 -e sim_annotation 0.103749333333333 4 2 received {1:emergency message A} from 1
v -t 0.103749333333333 -e sim_annotation 0.103749333333333 5 2 sending message 1
+ -t 0.103749333 -s 2 -d -1 -p message -e 100 -c 2 -a 0 -i 2 -k AGT 
- -t 0.103749333 -s 2 -d -1 -p message -e 100 -c 2 -a 0 -i 2 -k AGT
h -t 0.103749333 -s 2 -d -1 -p message -e 100 -c 2 -a 0 -i 2 -k AGT
r -t 0.103749333 -s 0 -d -1 -p message -e 100 -c 2 -a 0 -i 1 -k AGT
v -t 0.103749333333333 -e sim_annotation 0.103749333333333 6 0 received redundant message 1 from 1
+ -t 0.104144333 -s 2 -d -1 -p message -e 158 -c 2 -a 0 -i 2 -k MAC 
- -t 0.104144333 -s 2 -d -1 -p message -e 158 -c 2 -a 0 -i 2 -k MAC
h -t 0.104144333 -s 2 -d -1 -p message -e 158 -c 2 -a 0 -i 2 -k MAC
r -t 0.105409000 -s 3 -d -1 -p message -e 100 -c 2 -a 0 -i 2 -k MAC
r -t 0.105409000 -s 1 -d -1 -p message -e 100 -c 2 -a 0 -i 2 -k MAC
r -t 0.105434000 -s 3 -d -1 -p message -e 100 -c 2 -a 0 -i 2 -k AGT
v -t 0.105434 -e sim_annotation 0.105434 7 3 received {1:emergency message A} from 2
v -t 0.105434 -e sim_annotation 0.105434 8 3 sending message 1
+ -t 0.105434000 -s 3 -d -1 -p message -e 100 -c 2 -a 0 -i 3 -k AGT 
- -t 0.105434000 -s 3 -d -1 -p message -e 100 -c 2 -a 0 -i 3 -k AGT
h -t 0.105434000 -s 3 -d -1 -p message -e 100 -c 2 -a 0 -i 3 -k AGT
r -t 0.105434000 -s 1 -d -1 -p message -e 100 -c 2 -a 0 -i 2 -k AGT
v -t 0.105434 -e sim_annotation 0.105434 9 1 received redundant message 1 from 2
+ -t 0.105669000 -s 3 -d -1 -p message -e 158 -c 2 -a 0 -i 3 -k MAC 
- -t 0.105669000 -s 3 -d -1 -p message -e 158 -c 2 -a 0 -i 3 -k MAC
h -t 0.105669000 -s 3 -d -1 -p message -e 158 -c 2 -a 0 -i 3 -k MAC
r -t 0.106933667 -s 4 -d -1 -p message -e 100 -c 2 -a 0 -i 3 -k MAC
r -t 0.106933667 -s 2 -d -1 -p message -e 100 -c 2 -a 0 -i 3 -k MAC
r -t 0.106958667 -s 4 -d -1 -p message -e 100 -c 2 -a 0 -i 3 -k AGT
v -t 0.106958666666667 -e sim_annotation 0.106958666666667 10 4 received {1:emergency message A} from 3
v -t 0.106958666666667 -e sim_annotation 0.106958666666667 11 4 sending message 1
+ -t 0.106958667 -s 4 -d -1 -p message -e 100 -c 2 -a 0 -i 4 -k AGT 
- -t 0.106958667 -s 4 -d -1 -p message -e 100 -c 2 -a 0 -i 4 -k AGT
h -t 0.106958667 -s 4 -d -1 -p message -e 100 -c 2 -a 0 -i 4 -k AGT
r -t 0.106958667 -s 2 -d -1 -p message -e 100 -c 2 -a 0 -i 3 -k AGT
v -t 0.106958666666667 -e sim_annotation 0.106958666666667 12 2 received redundant message 1 from 3
+ -t 0.107273667 -s 4 -d -1 -p message -e 158 -c 2 -a 0 -i 4 -k MAC 
- -t 0.107273667 -s 4 -d -1 -p message -e 158 -c 2 -a 0 -i 4 -k MAC
h -t 0.107273667 -s 4 -d -1 -p message -e 158 -c 2 -a 0 -i 4 -k MAC
r -t 0.108538333 -s 3 -d -1 -p message -e 100 -c 2 -a 0 -i 4 -k MAC
r -t 0.108563333 -s 3 -d -1 -p message -e 100 -c 2 -a 0 -i 4 -k AGT
v -t 0.108563333333333 -e sim_annotation 0.108563333333333 13 3 received redundant message 1 from 4
v -t 0.2 -e sim_annotation 0.2 14 3 sending message 1
+ -t 0.200000000 -s 3 -d -1 -p message -e 100 -c 2 -a 0 -i 5 -k AGT 
- -t 0.200000000 -s 3 -d -1 -p message -e 100 -c 2 -a 0 -i 5 -k AGT
h -t 0.200000000 -s 3 -d -1 -p message -e 100 -c 2 -a 0 -i 5 -k AGT
+ -t 0.200335000 -s 3 -d -1 -p message -e 158 -c 2 -a 0 -i 5 -k MAC 
- -t 0.200335000 -s 3 -d -1 -p message -e 158 -c 2 -a 0 -i 5 -k MAC
h -t 0.200335000 -s 3 -d -1 -p message -e 158 -c 2 -a 0 -i 5 -k MAC
r -t 0.201599667 -s 4 -d -1 -p message -e 100 -c 2 -a 0 -i 5 -k MAC
r -t 0.201599667 -s 2 -d -1 -p message -e 100 -c 2 -a 0 -i 5 -k MAC
r -t 0.201624667 -s 4 -d -1 -p message -e 100 -c 2 -a 0 -i 5 -k AGT
v -t 0.201624666666667 -e sim_annotation 0.201624666666667 15 4 received redundant message 1 from 3
r -t 0.201624667 -s 2 -d -1 -p message -e 100 -c 2 -a 0 -i 5 -k AGT
v -t 0.201624666666667 -e sim_annotation 0.201624666666667 16 2 received redundant message 1 from 3
