M 0.00000 0 (4.10, 100.00, 0.00), (4.10, 100.00), 0.00
M 1.00000 0 (4.10, 100.00, 0.00), (5.21, 100.00), 1.11
M 2.00000 0 (5.21, 100.00, 0.00), (7.61, 100.00), 2.40
s -t 2.000000000 -Hs 0 -Hd -2 -Ni 0 -Nx 5.21 -Ny 100.00 -Nz 0.00 -Ne -1.000000 -Nl AGT -Nw --- -Ma 0 -Md 0 -Ms 0 -Mt 0 -Is 0.0 -Id 9.0 -It tcp -Il 40 -If 2 -Ii 0 -Iv 32 -Pn tcp -Ps 0 -Pa 0 -Pf 0 -Po 0 
r -t 2.000000000 -Hs 0 -Hd -2 -Ni 0 -Nx 5.21 -Ny 100.00 -Nz 0.00 -Ne -1.000000 -Nl RTR -Nw --- -Ma 0 -Md 0 -Ms 0 -Mt 0 -Is 0.0 -Id 9.0 -It tcp -Il 40 -If 2 -Ii 0 -Iv 32 -Pn tcp -Ps 0 -Pa 0 -Pf 0 -Po 0 
s -t 2.000000000 -Hs 0 -Hd -2 -Ni 0 -Nx 5.21 -Ny 100.00 -Nz 0.00 -Ne -1.000000 -Nl RTR -Nw --- -Ma 0 -Md 0 -Ms 0 -Mt 0 -Is 0.255 -Id -1.255 -It AODV -Il 48 -If 0 -Ii 0 -Iv 30 -P aodv -Pt 0x2 -Ph 1 -Pb 1 -Pd 9 -Pds 0 -Ps 0 -Pss 4 -Pc REQUEST 
s -t 2.000115000 -Hs 0 -Hd -2 -Ni 0 -Nx 5.21 -Ny 100.00 -Nz 0.00 -Ne -1.000000 -Nl MAC -Nw --- -Ma 0 -Md ffffffff -Ms 0 -Mt 800 -Is 0.255 -Id -1.255 -It AODV -Il 106 -If 0 -Ii 0 -Iv 30 -P aodv -Pt 0x2 -Ph 1 -Pb 1 -Pd 9 -Pds 0 -Ps 0 -Pss 4 -Pc REQUEST 
r -t 2.000963003 -Hs 1 -Hd -2 -Ni 1 -Nx 6.10 -Ny 100.00 -Nz 0.00 -Ne -1.000000 -Nl MAC -Nw --- -Ma 0 -Md ffffffff -Ms 0 -Mt 800 -Is 0.255 -Id -1.255 -It AODV -Il 48 -If 0 -Ii 0 -Iv 30 -P aodv -Pt 0x2 -Ph 1 -Pb 1 -Pd 9 -Pds 0 -Ps 0 -Pss 4 -Pc REQUEST 
r -t 2.000963003 -Hs 3 -Hd -2 -Ni 3 -Nx 6.10 -Ny 100.00 -Nz 0.00 -Ne -1.000000 -Nl MAC -Nw --- -Ma 0 -Md ffffffff -Ms 0 -Mt 800 -Is 0.255 -Id -1.255 -It AODV -Il 48 -If 0 -Ii 0 -Iv 30 -P aodv -Pt 0x2 -Ph 1 -Pb 1 -Pd 9 -Pds 0 -Ps 0 -Pss 4 -Pc REQUEST 
r -t 2.000963003 -Hs 5 -Hd -2 -Ni 5 -Nx 6.10 -Ny 100.00 -Nz 0.00 -Ne -1.000000 -Nl MAC -Nw --- -Ma 0 -Md ffffffff -Ms 0 -Mt 800 -Is 0.255 -Id -1.255 -It AODV -Il 48 -If 0 -Ii 0 -Iv 30 -P aodv -Pt 0x2 -Ph 1 -Pb 1 -Pd 9 -Pds 0 -Ps 0 -Pss 4 -Pc REQUEST 
r -t 2.000963003 -Hs 7 -Hd -2 -Ni 7 -Nx 6.10 -Ny 100.00 -Nz 0.00 -Ne -1.000000 -Nl MAC -Nw --- -Ma 0 -Md ffffffff -Ms 0 -Mt 800 -Is 0.255 -Id -1.255 -It AODV -Il 48 -If 0 -Ii 0 -Iv 30 -P aodv -Pt 0x2 -Ph 1 -Pb 1 -Pd 9 -Pds 0 -Ps 0 -Pss 4 -Pc REQUEST 
r -t 2.000963003 -Hs 9 -Hd -2 -Ni 9 -Nx 6.10 -Ny 100.00 -Nz 0.00 -Ne -1.000000 -Nl MAC -Nw --- -Ma 0 -Md ffffffff -Ms 0 -Mt 800 -Is 0.255 -Id -1.255 -It AODV -Il 48 -If 0 -Ii 0 -Iv 30 -P aodv -Pt 0x2 -Ph 1 -Pb 1 -Pd 9 -Pds 0 -Ps 0 -Pss 4 -Pc REQUEST 
r -t 2.000963003 -Hs 11 -Hd -2 -Ni 11 -Nx 6.10 -Ny 100.00 -Nz 0.00 -Ne -1.000000 -Nl MAC -Nw --- -Ma 0 -Md ffffffff -Ms 0 -Mt 800 -Is 0.255 -Id -1.255 -It AODV -Il 48 -If 0 -Ii 0 -Iv 30 -P aodv -Pt 0x2 -Ph 1 -Pb 1 -Pd 9 -Pds 0 -Ps 0 -Pss 4 -Pc REQUEST 
r -t 2.000963003 -Hs 13 -Hd -2 -Ni 13 -Nx 6.10 -Ny 100.00 -Nz 0.00 -Ne -1.000000 -Nl MAC -Nw --- -Ma 0 -Md ffffffff -Ms 0 -Mt 800 -Is 0.255 -Id -1.255 -It AODV -Il 48 -If 0 -Ii 0 -Iv 30 -P aodv -Pt 0x2 -Ph 1 -Pb 1 -Pd 9 -Pds 0 -Ps 0 -Pss 4 -Pc REQUEST 
r -t 2.000963003 -Hs 15 -Hd -2 -Ni 15 -Nx 6.10 -Ny 100.00 -Nz 0.00 -Ne -1.000000 -Nl MAC -Nw --- -Ma 0 -Md ffffffff -Ms 0 -Mt 800 -Is 0.255 -Id -1.255 -It AODV -Il 48 -If 0 -Ii 0 -Iv 30 -P aodv -Pt 0x2 -Ph 1 -Pb 1 -Pd 9 -Pds 0 -Ps 0 -Pss 4 -Pc REQUEST 
r -t 2.000963004 -Hs 14 -Hd -2 -Ni 14 -Nx 4.10 -Ny 100.00 -Nz 0.00 -Ne -1.000000 -Nl MAC -Nw --- -Ma 0 -Md ffffffff -Ms 0 -Mt 800 -Is 0.255 -Id -1.255 -It AODV -Il 48 -If 0 -Ii 0 -Iv 30 -P aodv -Pt 0x2 -Ph 1 -Pb 1 -Pd 9 -Pds 0 -Ps 0 -Pss 4 -Pc REQUEST 
r -t 2.000963004 -Hs 12 -Hd -2 -Ni 12 -Nx 4.10 -Ny 100.00 -Nz 0.00 -Ne -1.000000 -Nl MAC -Nw --- -Ma 0 -Md ffffffff -Ms 0 -Mt 800 -Is 0.255 -Id -1.255 -It AODV -Il 48 -If 0 -Ii 0 -Iv 30 -P aodv -Pt 0x2 -Ph 1 -Pb 1 -Pd 9 -Pds 0 -Ps 0 -Pss 4 -Pc REQUEST 
r -t 2.000963004 -Hs 10 -Hd -2 -Ni 10 -Nx 4.10 -Ny 100.00 -Nz 0.00 -Ne -1.000000 -Nl MAC -Nw --- -Ma 0 -Md ffffffff -Ms 0 -Mt 800 -Is 0.255 -Id -1.255 -It AODV -Il 48 -If 0 -Ii 0 -Iv 30 -P aodv -Pt 0x2 -Ph 1 -Pb 1 -Pd 9 -Pds 0 -Ps 0 -Pss 4 -Pc REQUEST 
r -t 2.000963004 -Hs 8 -Hd -2 -Ni 8 -Nx 4.10 -Ny 100.00 -Nz 0.00 -Ne -1.000000 -Nl MAC -Nw --- -Ma 0 -Md ffffffff -Ms 0 -Mt 800 -Is 0.255 -Id -1.255 -It AODV -Il 48 -If 0 -Ii 0 -Iv 30 -P aodv -Pt 0x2 -Ph 1 -Pb 1 -Pd 9 -Pds 0 -Ps 0 -Pss 4 -Pc REQUEST 
r -t 2.000963004 -Hs 6 -Hd -2 -Ni 6 -Nx 4.10 -Ny 100.00 -Nz 0.00 -Ne -1.000000 -Nl MAC -Nw --- -Ma 0 -Md ffffffff -Ms 0 -Mt 800 -Is 0.255 -Id -1.255 -It AODV -Il 48 -If 0 -Ii 0 -Iv 30 -P aodv -Pt 0x2 -Ph 1 -Pb 1 -Pd 9 -Pds 0 -Ps 0 -Pss 4 -Pc REQUEST 
r -t 2.000963004 -Hs 4 -Hd -2 -Ni 4 -Nx 4.10 -Ny 100.00 -Nz 0.00 -Ne -1.000000 -Nl MAC -Nw --- -Ma 0 -Md ffffffff -Ms 0 -Mt 800 -Is 0.255 -Id -1.255 -It AODV -Il 48 -If 0 -Ii 0 -Iv 30 -P aodv -Pt 0x2 -Ph 1 -Pb 1 -Pd 9 -Pds 0 -Ps 0 -Pss 4 -Pc REQUEST 
r -t 2.000963004 -Hs 2 -Hd -2 -Ni 2 -Nx 4.10 -Ny 100.00 -Nz 0.00 -Ne -1.000000 -Nl MAC -Nw --- -Ma 0 -Md ffffffff -Ms 0 -Mt 800 -Is 0.255 -Id -1.255 -It AODV -Il 48 -If 0 -Ii 0 -Iv 30 -P aodv -Pt 0x2 -Ph 1 -Pb 1 -Pd 9 -Pds 0 -Ps 0 -Pss 4 -Pc REQUEST 
r -t 2.000988003 -Hs 1 -Hd -2 -Ni 1 -Nx 6.10 -Ny 100.00 -Nz 0.00 -Ne -1.000000 -Nl RTR -Nw --- -Ma 0 -Md ffffffff -Ms 0 -Mt 800 -Is 0.255 -Id -1.255 -It AODV -Il 48 -If 0 -Ii 0 -Iv 30 -P aodv -Pt 0x2 -Ph 1 -Pb 1 -Pd 9 -Pds 0 -Ps 0 -Pss 4 -Pc REQUEST 
r -t 2.000988003 -Hs 3 -Hd -2 -Ni 3 -Nx 6.10 -Ny 100.00 -Nz 0.00 -Ne -1.000000 -Nl RTR -Nw --- -Ma 0 -Md ffffffff -Ms 0 -Mt 800 -Is 0.255 -Id -1.255 -It AODV -Il 48 -If 0 -Ii 0 -Iv 30 -P aodv -Pt 0x2 -Ph 1 -Pb 1 -Pd 9 -Pds 0 -Ps 0 -Pss 4 -Pc REQUEST 
r -t 2.000988003 -Hs 5 -Hd -2 -Ni 5 -Nx 6.10 -Ny 100.00 -Nz 0.00 -Ne -1.000000 -Nl RTR -Nw --- -Ma 0 -Md ffffffff -Ms 0 -Mt 800 -Is 0.255 -Id -1.255 -It AODV -Il 48 -If 0 -Ii 0 -Iv 30 -P aodv -Pt 0x2 -Ph 1 -Pb 1 -Pd 9 -Pds 0 -Ps 0 -Pss 4 -Pc REQUEST 
r -t 2.000988003 -Hs 7 -Hd -2 -Ni 7 -Nx 6.10 -Ny 100.00 -Nz 0.00 -Ne -1.000000 -Nl RTR -Nw --- -Ma 0 -Md ffffffff -Ms 0 -Mt 800 -Is 0.255 -Id -1.255 -It AODV -Il 48 -If 0 -Ii 0 -Iv 30 -P aodv -Pt 0x2 -Ph 1 -Pb 1 -Pd 9 -Pds 0 -Ps 0 -Pss 4 -Pc REQUEST 
r -t 2.000988003 -Hs 9 -Hd -2 -Ni 9 -Nx 6.10 -Ny 100.00 -Nz 0.00 -Ne -1.000000 -Nl RTR -Nw --- -Ma 0 -Md ffffffff -Ms 0 -Mt 800 -Is 0.255 -Id -1.255 -It AODV -Il 48 -If 0 -Ii 0 -Iv 30 -P aodv -Pt 0x2 -Ph 1 -Pb 1 -Pd 9 -Pds 0 -Ps 0 -Pss 4 -Pc REQUEST 
r -t 2.000988003 -Hs 11 -Hd -2 -Ni 11 -Nx 6.10 -Ny 100.00 -Nz 0.00 -Ne -1.000000 -Nl RTR -Nw --- -Ma 0 -Md ffffffff -Ms 0 -Mt 800 -Is 0.255 -Id -1.255 -It AODV -Il 48 -If 0 -Ii 0 -Iv 30 -P aodv -Pt 0x2 -Ph 1 -Pb 1 -Pd 9 -Pds 0 -Ps 0 -Pss 4 -Pc REQUEST 
r -t 2.000988003 -Hs 13 -Hd -2 -Ni 13 -Nx 6.10 -Ny 100.00 -Nz 0.00 -Ne -1.000000 -Nl RTR -Nw --- -Ma 0 -Md ffffffff -Ms 0 -Mt 800 -Is 0.255 -Id -1.255 -It AODV -Il 48 -If 0 -Ii 0 -Iv 30 -P aodv -Pt 0x2 -Ph 1 -Pb 1 -Pd 9 -Pds 0 -Ps 0 -Pss 4 -Pc REQUEST 
r -t 2.000988003 -Hs 15 -Hd -2 -Ni 15 -Nx 6.10 -Ny 100.00 -Nz 0.00 -Ne -1.000000 -Nl RTR -Nw --- -Ma 0 -Md ffffffff -Ms 0 -Mt 800 -Is 0.255 -Id -1.255 -It AODV -Il 48 -If 0 -Ii 0 -Iv 30 -P aodv -Pt 0x2 -Ph 1 -Pb 1 -Pd 9 -Pds 0 -Ps 0 -Pss 4 -Pc REQUEST 
s -t 2.000988003 -Hs 9 -Hd 0 -Ni 9 -Nx 6.10 -Ny 100.00 -Nz 0.00 -Ne -1.000000 -Nl RTR -Nw --- -Ma 0 -Md 0 -Ms 0 -Mt 0 -Is 9.255 -Id 0.255 -It AODV -Il 44 -If 0 -Ii 0 -Iv 30 -P aodv -Pt 0x4 -Ph 1 -Pd 9 -Pds 4 -Pl 10.000000 -Pc REPLY 
r -t 2.000988004 -Hs 14 -Hd -2 -Ni 14 -Nx 4.10 -Ny 100.00 -Nz 0.00 -Ne -1.000000 -Nl RTR -Nw --- -Ma 0 -Md ffffffff -Ms 0 -Mt 800 -Is 0.255 -Id -1.255 -It AODV -Il 48 -If 0 -Ii 0 -Iv 30 -P aodv -Pt 0x2 -Ph 1 -Pb 1 -Pd 9 -Pds 0 -Ps 0 -Pss 4 -Pc REQUEST 
r -t 2.000988004 -Hs 12 -Hd -2 -Ni 12 -Nx 4.10 -Ny 100.00 -Nz 0.00 -Ne -1.000000 -Nl RTR -Nw --- -Ma 0 -Md ffffffff -Ms 0 -Mt 800 -Is 0.255 -Id -1.255 -It AODV -Il 48 -If 0 -Ii 0 -Iv 30 -P aodv -Pt 0x2 -Ph 1 -Pb 1 -Pd 9 -Pds 0 -Ps 0 -Pss 4 -Pc REQUEST 
r -t 2.000988004 -Hs 10 -Hd -2 -Ni 10 -Nx 4.10 -Ny 100.00 -Nz 0.00 -Ne -1.000000 -Nl RTR -Nw --- -Ma 0 -Md ffffffff -Ms 0 -Mt 800 -Is 0.255 -Id -1.255 -It AODV -Il 48 -If 0 -Ii 0 -Iv 30 -P aodv -Pt 0x2 -Ph 1 -Pb 1 -Pd 9 -Pds 0 -Ps 0 -Pss 4 -Pc REQUEST 
r -t 2.000988004 -Hs 8 -Hd -2 -Ni 8 -Nx 4.10 -Ny 100.00 -Nz 0.00 -Ne -1.000000 -Nl RTR -Nw --- -Ma 0 -Md ffffffff -Ms 0 -Mt 800 -Is 0.255 -Id -1.255 -It AODV -Il 48 -If 0 -Ii 0 -Iv 30 -P aodv -Pt 0x2 -Ph 1 -Pb 1 -Pd 9 -Pds 0 -Ps 0 -Pss 4 -Pc REQUEST 
r -t 2.000988004 -Hs 6 -Hd -2 -Ni 6 -Nx 4.10 -Ny 100.00 -Nz 0.00 -Ne -1.000000 -Nl RTR -Nw --- -Ma 0 -Md ffffffff -Ms 0 -Mt 800 -Is 0.255 -Id -1.255 -It AODV -Il 48 -If 0 -Ii 0 -Iv 30 -P aodv -Pt 0x2 -Ph 1 -Pb 1 -Pd 9 -Pds 0 -Ps 0 -Pss 4 -Pc REQUEST 
r -t 2.000988004 -Hs 4 -Hd -2 -Ni 4 -Nx 4.10 -Ny 100.00 -Nz 0.00 -Ne -1.000000 -Nl RTR -Nw --- -Ma 0 -Md ffffffff -Ms 0 -Mt 800 -Is 0.255 -Id -1.255 -It AODV -Il 48 -If 0 -Ii 0 -Iv 30 -P aodv -Pt 0x2 -Ph 1 -Pb 1 -Pd 9 -Pds 0 -Ps 0 -Pss 4 -Pc REQUEST 
r -t 2.000988004 -Hs 2 -Hd -2 -Ni 2 -Nx 4.10 -Ny 100.00 -Nz 0.00 -Ne -1.000000 -Nl RTR -Nw --- -Ma 0 -Md ffffffff -Ms 0 -Mt 800 -Is 0.255 -Id -1.255 -It AODV -Il 48 -If 0 -Ii 0 -Iv 30 -P aodv -Pt 0x2 -Ph 1 -Pb 1 -Pd 9 -Pds 0 -Ps 0 -Pss 4 -Pc REQUEST 
s -t 2.001203003 -Hs 9 -Hd -2 -Ni 9 -Nx 6.10 -Ny 100.00 -Nz 0.00 -Ne -1.000000 -Nl MAC -Nw --- -Ma 0 -Md ffffffff -Ms 9 -Mt 806 -P arp -Po REQUEST -Pms 9 -Ps 9 -Pmd 0 -Pd 0 
s -t 2.001415949 -Hs 8 -Hd -2 -Ni 8 -Nx 4.10 -Ny 100.00 -Nz 0.00 -Ne -1.000000 -Nl RTR -Nw --- -Ma 0 -Md ffffffff -Ms 0 -Mt 800 -Is 8.255 -Id -1.255 -It AODV -Il 48 -If 0 -Ii 0 -Iv 29 -P aodv -Pt 0x2 -Ph 2 -Pb 1 -Pd 9 -Pds 0 -Ps 0 -Pss 4 -Pc REQUEST 
s -t 2.001869230 -Hs 1 -Hd -2 -Ni 1 -Nx 6.10 -Ny 100.00 -Nz 0.00 -Ne -1.000000 -Nl RTR -Nw --- -Ma 0 -Md ffffffff -Ms 0 -Mt 800 -Is 1.255 -Id -1.255 -It AODV -Il 48 -If 0 -Ii 0 -Iv 29 -P aodv -Pt 0x2 -Ph 2 -Pb 1 -Pd 9 -Pds 0 -Ps 0 -Pss 4 -Pc REQUEST 
r -t 2.001891003 -Hs 7 -Hd -2 -Ni 7 -Nx 6.10 -Ny 100.00 -Nz 0.00 -Ne -1.000000 -Nl MAC -Nw --- -Ma 0 -Md ffffffff -Ms 9 -Mt 806 -P arp -Po REQUEST -Pms 9 -Ps 9 -Pmd 0 -Pd 0 
r -t 2.001891003 -Hs 5 -Hd -2 -Ni 5 -Nx 6.10 -Ny 100.00 -Nz 0.00 -Ne -1.000000 -Nl MAC -Nw --- -Ma 0 -Md ffffffff -Ms 9 -Mt 806 -P arp -Po REQUEST -Pms 9 -Ps 9 -Pmd 0 -Pd 0 
r -t 2.001891003 -Hs 3 -Hd -2 -Ni 3 -Nx 6.10 -Ny 100.00 -Nz 0.00 -Ne -1.000000 -Nl MAC -Nw --- -Ma 0 -Md ffffffff -Ms 9 -Mt 806 -P arp -Po REQUEST -Pms 9 -Ps 9 -Pmd 0 -Pd 0 
r -t 2.001891003 -Hs 1 -Hd -2 -Ni 1 -Nx 6.10 -Ny 100.00 -Nz 0.00 -Ne -1.000000 -Nl MAC -Nw --- -Ma 0 -Md ffffffff -Ms 9 -Mt 806 -P arp -Po REQUEST -Pms 9 -Ps 9 -Pmd 0 -Pd 0 
r -t 2.001891003 -Hs 11 -Hd -2 -Ni 11 -Nx 6.10 -Ny 100.00 -Nz 0.00 -Ne -1.000000 -Nl MAC -Nw --- -Ma 0 -Md ffffffff -Ms 9 -Mt 806 -P arp -Po REQUEST -Pms 9 -Ps 9 -Pmd 0 -Pd 0 
r -t 2.001891003 -Hs 13 -Hd -2 -Ni 13 -Nx 6.10 -Ny 100.00 -Nz 0.00 -Ne -1.000000 -Nl MAC -Nw --- -Ma 0 -Md ffffffff -Ms 9 -Mt 806 -P arp -Po REQUEST -Pms 9 -Ps 9 -Pmd 0 -Pd 0 
r -t 2.001891003 -Hs 15 -Hd -2 -Ni 15 -Nx 6.10 -Ny 100.00 -Nz 0.00 -Ne -1.000000 -Nl MAC -Nw --- -Ma 0 -Md ffffffff -Ms 9 -Mt 806 -P arp -Po REQUEST -Pms 9 -Ps 9 -Pmd 0 -Pd 0 
r -t 2.001891006 -Hs 0 -Hd -2 -Ni 0 -Nx 5.21 -Ny 100.00 -Nz 0.00 -Ne -1.000000 -Nl MAC -Nw --- -Ma 0 -Md ffffffff -Ms 9 -Mt 806 -P arp -Po REQUEST -Pms 9 -Ps 9 -Pmd 0 -Pd 0 
r -t 2.001891010 -Hs 14 -Hd -2 -Ni 14 -Nx 4.10 -Ny 100.00 -Nz 0.00 -Ne -1.000000 -Nl MAC -Nw --- -Ma 0 -Md ffffffff -Ms 9 -Mt 806 -P arp -Po REQUEST -Pms 9 -Ps 9 -Pmd 0 -Pd 0 
r -t 2.001891010 -Hs 12 -Hd -2 -Ni 12 -Nx 4.10 -Ny 100.00 -Nz 0.00 -Ne -1.000000 -Nl MAC -Nw --- -Ma 0 -Md ffffffff -Ms 9 -Mt 806 -P arp -Po REQUEST -Pms 9 -Ps 9 -Pmd 0 -Pd 0 
r -t 2.001891010 -Hs 10 -Hd -2 -Ni 10 -Nx 4.10 -Ny 100.00 -Nz 0.00 -Ne -1.000000 -Nl MAC -Nw --- -Ma 0 -Md ffffffff -Ms 9 -Mt 806 -P arp -Po REQUEST -Pms 9 -Ps 9 -Pmd 0 -Pd 0 
r -t 2.001891010 -Hs 8 -Hd -2 -Ni 8 -Nx 4.10 -Ny 100.00 -Nz 0.00 -Ne -1.000000 -Nl MAC -Nw --- -Ma 0 -Md ffffffff -Ms 9 -Mt 806 -P arp -Po REQUEST -Pms 9 -Ps 9 -Pmd 0 -Pd 0 
r -t 2.001891010 -Hs 6 -Hd -2 -Ni 6 -Nx 4.10 -Ny 100.00 -Nz 0.00 -Ne -1.000000 -Nl MAC -Nw --- -Ma 0 -Md ffffffff -Ms 9 -Mt 806 -P arp -Po REQUEST -Pms 9 -Ps 9 -Pmd 0 -Pd 0 
r -t 2.001891010 -Hs 4 -Hd -2 -Ni 4 -Nx 4.10 -Ny 100.00 -Nz 0.00 -Ne -1.000000 -Nl MAC -Nw --- -Ma 0 -Md ffffffff -Ms 9 -Mt 806 -P arp -Po REQUEST -Pms 9 -Ps 9 -Pmd 0 -Pd 0 
r -t 2.001891010 -Hs 2 -Hd -2 -Ni 2 -Nx 4.10 -Ny 100.00 -Nz 0.00 -Ne -1.000000 -Nl MAC -Nw --- -Ma 0 -Md ffffffff -Ms 9 -Mt 806 -P arp -Po REQUEST -Pms 9 -Ps 9 -Pmd 0 -Pd 0 
s -t 2.002126086 -Hs 4 -Hd -2 -Ni 4 -Nx 4.10 -Ny 100.00 -Nz 0.00 -Ne -1.000000 -Nl RTR -Nw --- -Ma 0 -Md ffffffff -Ms 0 -Mt 800 -Is 4.255 -Id -1.255 -It AODV -Il 48 -If 0 -Ii 0 -Iv 29 -P aodv -Pt 0x2 -Ph 2 -Pb 1 -Pd 9 -Pds 0 -Ps 0 -Pss 4 -Pc REQUEST 
s -t 2.002264230 -Hs 1 -Hd -2 -Ni 1 -Nx 6.10 -Ny 100.00 -Nz 0.00 -Ne -1.000000 -Nl MAC -Nw --- -Ma 0 -Md ffffffff -Ms 1 -Mt 800 -Is 1.255 -Id -1.255 -It AODV -Il 106 -If 0 -Ii 0 -Iv 29 -P aodv -Pt 0x2 -Ph 2 -Pb 1 -Pd 9 -Pds 0 -Ps 0 -Pss 4 -Pc REQUEST 
s -t 2.002629458 -Hs 10 -Hd -2 -Ni 10 -Nx 4.10 -Ny 100.00 -Nz 0.00 -Ne -1.000000 -Nl RTR -Nw --- -Ma 0 -Md ffffffff -Ms 0 -Mt 800 -Is 10.255 -Id -1.255 -It AODV -Il 48 -If 0 -Ii 0 -Iv 29 -P aodv -Pt 0x2 -Ph 2 -Pb 1 -Pd 9 -Pds 0 -Ps 0 -Pss 4 -Pc REQUEST 
r -t 2.003112230 -Hs 3 -Hd -2 -Ni 3 -Nx 6.10 -Ny 100.00 -Nz 0.00 -Ne -1.000000 -Nl MAC -Nw --- -Ma 0 -Md ffffffff -Ms 1 -Mt 800 -Is 1.255 -Id -1.255 -It AODV -Il 48 -If 0 -Ii 0 -Iv 29 -P aodv -Pt 0x2 -Ph 2 -Pb 1 -Pd 9 -Pds 0 -Ps 0 -Pss 4 -Pc REQUEST 
r -t 2.003112230 -Hs 5 -Hd -2 -Ni 5 -Nx 6.10 -Ny 100.00 -Nz 0.00 -Ne -1.000000 -Nl MAC -Nw --- -Ma 0 -Md ffffffff -Ms 1 -Mt 800 -Is 1.255 -Id -1.255 -It AODV -Il 48 -If 0 -Ii 0 -Iv 29 -P aodv -Pt 0x2 -Ph 2 -Pb 1 -Pd 9 -Pds 0 -Ps 0 -Pss 4 -Pc REQUEST 
r -t 2.003112230 -Hs 7 -Hd -2 -Ni 7 -Nx 6.10 -Ny 100.00 -Nz 0.00 -Ne -1.000000 -Nl MAC -Nw --- -Ma 0 -Md ffffffff -Ms 1 -Mt 800 -Is 1.255 -Id -1.255 -It AODV -Il 48 -If 0 -Ii 0 -Iv 29 -P aodv -Pt 0x2 -Ph 2 -Pb 1 -Pd 9 -Pds 0 -Ps 0 -Pss 4 -Pc REQUEST 
r -t 2.003112230 -Hs 9 -Hd -2 -Ni 9 -Nx 6.10 -Ny 100.00 -Nz 0.00 -Ne -1.000000 -Nl MAC -Nw --- -Ma 0 -Md ffffffff -Ms 1 -Mt 800 -Is 1.255 -Id -1.255 -It AODV -Il 48 -If 0 -Ii 0 -Iv 29 -P aodv -Pt 0x2 -Ph 2 -Pb 1 -Pd 9 -Pds 0 -Ps 0 -Pss 4 -Pc REQUEST 
r -t 2.003112230 -Hs 11 -Hd -2 -Ni 11 -Nx 6.10 -Ny 100.00 -Nz 0.00 -Ne -1.000000 -Nl MAC -Nw --- -Ma 0 -Md ffffffff -Ms 1 -Mt 800 -Is 1.255 -Id -1.255 -It AODV -Il 48 -If 0 -Ii 0 -Iv 29 -P aodv -Pt 0x2 -Ph 2 -Pb 1 -Pd 9 -Pds 0 -Ps 0 -Pss 4 -Pc REQUEST 
r -t 2.003112230 -Hs 13 -Hd -2 -Ni 13 -Nx 6.10 -Ny 100.00 -Nz 0.00 -Ne -1.000000 -Nl MAC -Nw --- -Ma 0 -Md ffffffff -Ms 1 -Mt 800 -Is 1.255 -Id -1.255 -It AODV -Il 48 -If 0 -Ii 0 -Iv 29 -P aodv -Pt 0x2 -Ph 2 -Pb 1 -Pd 9 -Pds 0 -Ps 0 -Pss 4 -Pc REQUEST 
r -t 2.003112230 -Hs 15 -Hd -2 -Ni 15 -Nx 6.10 -Ny 100.00 -Nz 0.00 -Ne -1.000000 -Nl MAC -Nw --- -Ma 0 -Md ffffffff -Ms 1 -Mt 800 -Is 1.255 -Id -1.255 -It AODV -Il 48 -If 0 -Ii 0 -Iv 29 -P aodv -Pt 0x2 -Ph 2 -Pb 1 -Pd 9 -Pds 0 -Ps 0 -Pss 4 -Pc REQUEST 
r -t 2.003112233 -Hs 0 -Hd -2 -Ni 0 -Nx 5.22 -Ny 100.00 -Nz 0.00 -Ne -1.000000 -Nl MAC -Nw --- -Ma 0 -Md ffffffff -Ms 1 -Mt 800 -Is 1.255 -Id -1.255 -It AODV -Il 48 -If 0 -Ii 0 -Iv 29 -P aodv -Pt 0x2 -Ph 2 -Pb 1 -Pd 9 -Pds 0 -Ps 0 -Pss 4 -Pc REQUEST 
r -t 2.003112236 -Hs 14 -Hd -2 -Ni 14 -Nx 4.10 -Ny 100.00 -Nz 0.00 -Ne -1.000000 -Nl MAC -Nw --- -Ma 0 -Md ffffffff -Ms 1 -Mt 800 -Is 1.255 -Id -1.255 -It AODV -Il 48 -If 0 -Ii 0 -Iv 29 -P aodv -Pt 0x2 -Ph 2 -Pb 1 -Pd 9 -Pds 0 -Ps 0 -Pss 4 -Pc REQUEST 
r -t 2.003112236 -Hs 12 -Hd -2 -Ni 12 -Nx 4.10 -Ny 100.00 -Nz 0.00 -Ne -1.000000 -Nl MAC -Nw --- -Ma 0 -Md ffffffff -Ms 1 -Mt 800 -Is 1.255 -Id -1.255 -It AODV -Il 48 -If 0 -Ii 0 -Iv 29 -P aodv -Pt 0x2 -Ph 2 -Pb 1 -Pd 9 -Pds 0 -Ps 0 -Pss 4 -Pc REQUEST 
r -t 2.003112236 -Hs 10 -Hd -2 -Ni 10 -Nx 4.10 -Ny 100.00 -Nz 0.00 -Ne -1.000000 -Nl MAC -Nw --- -Ma 0 -Md ffffffff -Ms 1 -Mt 800 -Is 1.255 -Id -1.255 -It AODV -Il 48 -If 0 -Ii 0 -Iv 29 -P aodv -Pt 0x2 -Ph 2 -Pb 1 -Pd 9 -Pds 0 -Ps 0 -Pss 4 -Pc REQUEST 
r -t 2.003112236 -Hs 8 -Hd -2 -Ni 8 -Nx 4.10 -Ny 100.00 -Nz 0.00 -Ne -1.000000 -Nl MAC -Nw --- -Ma 0 -Md ffffffff -Ms 1 -Mt 800 -Is 1.255 -Id -1.255 -It AODV -Il 48 -If 0 -Ii 0 -Iv 29 -P aodv -Pt 0x2 -Ph 2 -Pb 1 -Pd 9 -Pds 0 -Ps 0 -Pss 4 -Pc REQUEST 
r -t 2.003112236 -Hs 6 -Hd -2 -Ni 6 -Nx 4.10 -Ny 100.00 -Nz 0.00 -Ne -1.000000 -Nl MAC -Nw --- -Ma 0 -Md ffffffff -Ms 1 -Mt 800 -Is 1.255 -Id -1.255 -It AODV -Il 48 -If 0 -Ii 0 -Iv 29 -P aodv -Pt 0x2 -Ph 2 -Pb 1 -Pd 9 -Pds 0 -Ps 0 -Pss 4 -Pc REQUEST 
r -t 2.003112236 -Hs 4 -Hd -2 -Ni 4 -Nx 4.10 -Ny 100.00 -Nz 0.00 -Ne -1.000000 -Nl MAC -Nw --- -Ma 0 -Md ffffffff -Ms 1 -Mt 800 -Is 1.255 -Id -1.255 -It AODV -Il 48 -If 0 -Ii 0 -Iv 29 -P aodv -Pt 0x2 -Ph 2 -Pb 1 -Pd 9 -Pds 0 -Ps 0 -Pss 4 -Pc REQUEST 
r -t 2.003112236 -Hs 2 -Hd -2 -Ni 2 -Nx 4.10 -Ny 100.00 -Nz 0.00 -Ne -1.000000 -Nl MAC -Nw --- -Ma 0 -Md ffffffff -Ms 1 -Mt 800 -Is 1.255 -Id -1.255 -It AODV -Il 48 -If 0 -Ii 0 -Iv 29 -P aodv -Pt 0x2 -Ph 2 -Pb 1 -Pd 9 -Pds 0 -Ps 0 -Pss 4 -Pc REQUEST 
r -t 2.003137230 -Hs 3 -Hd -2 -Ni 3 -Nx 6.10 -Ny 100.00 -Nz 0.00 -Ne -1.000000 -Nl RTR -Nw --- -Ma 0 -Md ffffffff -Ms 1 -Mt 800 -Is 1.255 -Id -1.255 -It AODV -Il 48 -If 0 -Ii 0 -Iv 29 -P aodv -Pt 0x2 -Ph 2 -Pb 1 -Pd 9 -Pds 0 -Ps 0 -Pss 4 -Pc REQUEST 
r -t 2.003137230 -Hs 5 -Hd -2 -Ni 5 -Nx 6.10 -Ny 100.00 -Nz 0.00 -Ne -1.000000 -Nl RTR -Nw --- -Ma 0 -Md ffffffff -Ms 1 -Mt 800 -Is 1.255 -Id -1.255 -It AODV -Il 48 -If 0 -Ii 0 -Iv 29 -P aodv -Pt 0x2 -Ph 2 -Pb 1 -Pd 9 -Pds 0 -Ps 0 -Pss 4 -Pc REQUEST 
r -t 2.003137230 -Hs 7 -Hd -2 -Ni 7 -Nx 6.10 -Ny 100.00 -Nz 0.00 -Ne -1.000000 -Nl RTR -Nw --- -Ma 0 -Md ffffffff -Ms 1 -Mt 800 -Is 1.255 -Id -1.255 -It AODV -Il 48 -If 0 -Ii 0 -Iv 29 -P aodv -Pt 0x2 -Ph 2 -Pb 1 -Pd 9 -Pds 0 -Ps 0 -Pss 4 -Pc REQUEST 
r -t 2.003137230 -Hs 9 -Hd -2 -Ni 9 -Nx 6.10 -Ny 100.00 -Nz 0.00 -Ne -1.000000 -Nl RTR -Nw --- -Ma 0 -Md ffffffff -Ms 1 -Mt 800 -Is 1.255 -Id -1.255 -It AODV -Il 48 -If 0 -Ii 0 -Iv 29 -P aodv -Pt 0x2 -Ph 2 -Pb 1 -Pd 9 -Pds 0 -Ps 0 -Pss 4 -Pc REQUEST 
r -t 2.003137230 -Hs 11 -Hd -2 -Ni 11 -Nx 6.10 -Ny 100.00 -Nz 0.00 -Ne -1.000000 -Nl RTR -Nw --- -Ma 0 -Md ffffffff -Ms 1 -Mt 800 -Is 1.255 -Id -1.255 -It AODV -Il 48 -If 0 -Ii 0 -Iv 29 -P aodv -Pt 0x2 -Ph 2 -Pb 1 -Pd 9 -Pds 0 -Ps 0 -Pss 4 -Pc REQUEST 
r -t 2.003137230 -Hs 13 -Hd -2 -Ni 13 -Nx 6.10 -Ny 100.00 -Nz 0.00 -Ne -1.000000 -Nl RTR -Nw --- -Ma 0 -Md ffffffff -Ms 1 -Mt 800 -Is 1.255 -Id -1.255 -It AODV -Il 48 -If 0 -Ii 0 -Iv 29 -P aodv -Pt 0x2 -Ph 2 -Pb 1 -Pd 9 -Pds 0 -Ps 0 -Pss 4 -Pc REQUEST 
r -t 2.003137230 -Hs 15 -Hd -2 -Ni 15 -Nx 6.10 -Ny 100.00 -Nz 0.00 -Ne -1.000000 -Nl RTR -Nw --- -Ma 0 -Md ffffffff -Ms 1 -Mt 800 -Is 1.255 -Id -1.255 -It AODV -Il 48 -If 0 -Ii 0 -Iv 29 -P aodv -Pt 0x2 -Ph 2 -Pb 1 -Pd 9 -Pds 0 -Ps 0 -Pss 4 -Pc REQUEST 
r -t 2.003137233 -Hs 0 -Hd -2 -Ni 0 -Nx 5.22 -Ny 100.00 -Nz 0.00 -Ne -1.000000 -Nl RTR -Nw --- -Ma 0 -Md ffffffff -Ms 1 -Mt 800 -Is 1.255 -Id -1.255 -It AODV -Il 48 -If 0 -Ii 0 -Iv 29 -P aodv -Pt 0x2 -Ph 2 -Pb 1 -Pd 9 -Pds 0 -Ps 0 -Pss 4 -Pc REQUEST 
r -t 2.003137236 -Hs 14 -Hd -2 -Ni 14 -Nx 4.10 -Ny 100.00 -Nz 0.00 -Ne -1.000000 -Nl RTR -Nw --- -Ma 0 -Md ffffffff -Ms 1 -Mt 800 -Is 1.255 -Id -1.255 -It AODV -Il 48 -If 0 -Ii 0 -Iv 29 -P aodv -Pt 0x2 -Ph 2 -Pb 1 -Pd 9 -Pds 0 -Ps 0 -Pss 4 -Pc REQUEST 
r -t 2.003137236 -Hs 12 -Hd -2 -Ni 12 -Nx 4.10 -Ny 100.00 -Nz 0.00 -Ne -1.000000 -Nl RTR -Nw --- -Ma 0 -Md ffffffff -Ms 1 -Mt 800 -Is 1.255 -Id -1.255 -It AODV -Il 48 -If 0 -Ii 0 -Iv 29 -P aodv -Pt 0x2 -Ph 2 -Pb 1 -Pd 9 -Pds 0 -Ps 0 -Pss 4 -Pc REQUEST 
r -t 2.003137236 -Hs 10 -Hd -2 -Ni 10 -Nx 4.10 -Ny 100.00 -Nz 0.00 -Ne -1.000000 -Nl RTR -Nw --- -Ma 0 -Md ffffffff -Ms 1 -Mt 800 -Is 1.255 -Id -1.255 -It AODV -Il 48 -If 0 -Ii 0 -Iv 29 -P aodv -Pt 0x2 -Ph 2 -Pb 1 -Pd 9 -Pds 0 -Ps 0 -Pss 4 -Pc REQUEST 
r -t 2.003137236 -Hs 8 -Hd -2 -Ni 8 -Nx 4.10 -Ny 100.00 -Nz 0.00 -Ne -1.000000 -Nl RTR -Nw --- -Ma 0 -Md ffffffff -Ms 1 -Mt 800 -Is 1.255 -Id -1.255 -It AODV -Il 48 -If 0 -Ii 0 -Iv 29 -P aodv -Pt 0x2 -Ph 2 -Pb 1 -Pd 9 -Pds 0 -Ps 0 -Pss 4 -Pc REQUEST 
r -t 2.003137236 -Hs 6 -Hd -2 -Ni 6 -Nx 4.10 -Ny 100.00 -Nz 0.00 -Ne -1.000000 -Nl RTR -Nw --- -Ma 0 -Md ffffffff -Ms 1 -Mt 800 -Is 1.255 -Id -1.255 -It AODV -Il 48 -If 0 -Ii 0 -Iv 29 -P aodv -Pt 0x2 -Ph 2 -Pb 1 -Pd 9 -Pds 0 -Ps 0 -Pss 4 -Pc REQUEST 
r -t 2.003137236 -Hs 4 -Hd -2 -Ni 4 -Nx 4.10 -Ny 100.00 -Nz 0.00 -Ne -1.000000 -Nl RTR -Nw --- -Ma 0 -Md ffffffff -Ms 1 -Mt 800 -Is 1.255 -Id -1.255 -It AODV -Il 48 -If 0 -Ii 0 -Iv 29 -P aodv -Pt 0x2 -Ph 2 -Pb 1 -Pd 9 -Pds 0 -Ps 0 -Pss 4 -Pc REQUEST 
r -t 2.003137236 -Hs 2 -Hd -2 -Ni 2 -Nx 4.10 -Ny 100.00 -Nz 0.00 -Ne -1.000000 -Nl RTR -Nw --- -Ma 0 -Md ffffffff -Ms 1 -Mt 800 -Is 1.255 -Id -1.255 -It AODV -Il 48 -If 0 -Ii 0 -Iv 29 -P aodv -Pt 0x2 -Ph 2 -Pb 1 -Pd 9 -Pds 0 -Ps 0 -Pss 4 -Pc REQUEST 
s -t 2.003222233 -Hs 0 -Hd -2 -Ni 0 -Nx 5.22 -Ny 100.00 -Nz 0.00 -Ne -1.000000 -Nl MAC -Nw --- -Ma 52e -Md 9 -Ms 0 -Mt 0 
s -t 2.003334020 -Hs 13 -Hd -2 -Ni 13 -Nx 6.10 -Ny 100.00 -Nz 0.00 -Ne -1.000000 -Nl RTR -Nw --- -Ma 0 -Md ffffffff -Ms 0 -Mt 800 -Is 13.255 -Id -1.255 -It AODV -Il 48 -If 0 -Ii 0 -Iv 29 -P aodv -Pt 0x2 -Ph 2 -Pb 1 -Pd 9 -Pds 0 -Ps 0 -Pss 4 -Pc REQUEST 
r -t 2.003574236 -Hs 9 -Hd -2 -Ni 9 -Nx 6.10 -Ny 100.00 -Nz 0.00 -Ne -1.000000 -Nl MAC -Nw --- -Ma 52e -Md 9 -Ms 0 -Mt 0 
s -t 2.003584236 -Hs 9 -Hd -2 -Ni 9 -Nx 6.10 -Ny 100.00 -Nz 0.00 -Ne -1.000000 -Nl MAC -Nw --- -Ma 3f4 -Md 0 -Ms 0 -Mt 0 
r -t 2.003888239 -Hs 0 -Hd -2 -Ni 0 -Nx 5.22 -Ny 100.00 -Nz 0.00 -Ne -1.000000 -Nl MAC -Nw --- -Ma 3f4 -Md 0 -Ms 0 -Mt 0 
s -t 2.003898239 -Hs 0 -Hd -2 -Ni 0 -Nx 5.22 -Ny 100.00 -Nz 0.00 -Ne -1.000000 -Nl MAC -Nw --- -Ma 13a -Md 9 -Ms 0 -Mt 806 -P arp -Po REPLY -Pms 0 -Ps 0 -Pmd 9 -Pd 9 
s -t 2.004078794 -Hs 14 -Hd -2 -Ni 14 -Nx 4.10 -Ny 100.00 -Nz 0.00 -Ne -1.000000 -Nl RTR -Nw --- -Ma 0 -Md ffffffff -Ms 0 -Mt 800 -Is 14.255 -Id -1.255 -It AODV -Il 48 -If 0 -Ii 0 -Iv 29 -P aodv -Pt 0x2 -Ph 2 -Pb 1 -Pd 9 -Pds 0 -Ps 0 -Pss 4 -Pc REQUEST 
s -t 2.004117621 -Hs 7 -Hd -2 -Ni 7 -Nx 6.10 -Ny 100.00 -Nz 0.00 -Ne -1.000000 -Nl RTR -Nw --- -Ma 0 -Md ffffffff -Ms 0 -Mt 800 -Is 7.255 -Id -1.255 -It AODV -Il 48 -If 0 -Ii 0 -Iv 29 -P aodv -Pt 0x2 -Ph 2 -Pb 1 -Pd 9 -Pds 0 -Ps 0 -Pss 4 -Pc REQUEST 
r -t 2.004586241 -Hs 9 -Hd -2 -Ni 9 -Nx 6.10 -Ny 100.00 -Nz 0.00 -Ne -1.000000 -Nl MAC -Nw --- -Ma 13a -Md 9 -Ms 0 -Mt 806 -P arp -Po REPLY -Pms 0 -Ps 0 -Pmd 9 -Pd 9 
s -t 2.004596241 -Hs 9 -Hd -2 -Ni 9 -Nx 6.10 -Ny 100.00 -Nz 0.00 -Ne -1.000000 -Nl MAC -Nw --- -Ma 0 -Md 0 -Ms 0 -Mt 0 
r -t 2.004900244 -Hs 0 -Hd -2 -Ni 0 -Nx 5.22 -Ny 100.00 -Nz 0.00 -Ne -1.000000 -Nl MAC -Nw --- -Ma 0 -Md 0 -Ms 0 -Mt 0 
s -t 2.005030248 -Hs 4 -Hd -2 -Ni 4 -Nx 4.10 -Ny 100.00 -Nz 0.00 -Ne -1.000000 -Nl MAC -Nw --- -Ma 0 -Md ffffffff -Ms 4 -Mt 800 -Is 4.255 -Id -1.255 -It AODV -Il 106 -If 0 -Ii 0 -Iv 29 -P aodv -Pt 0x2 -Ph 2 -Pb 1 -Pd 9 -Pds 0 -Ps 0 -Pss 4 -Pc REQUEST 
s -t 2.005399737 -Hs 3 -Hd -2 -Ni 3 -Nx 6.10 -Ny 100.00 -Nz 0.00 -Ne -1.000000 -Nl RTR -Nw --- -Ma 0 -Md ffffffff -Ms 0 -Mt 800 -Is 3.255 -Id -1.255 -It AODV -Il 48 -If 0 -Ii 0 -Iv 29 -P aodv -Pt 0x2 -Ph 2 -Pb 1 -Pd 9 -Pds 0 -Ps 0 -Pss 4 -Pc REQUEST 
r -t 2.005878248 -Hs 2 -Hd -2 -Ni 2 -Nx 4.10 -Ny 100.00 -Nz 0.00 -Ne -1.000000 -Nl MAC -Nw --- -Ma 0 -Md ffffffff -Ms 4 -Mt 800 -Is 4.255 -Id -1.255 -It AODV -Il 48 -If 0 -Ii 0 -Iv 29 -P aodv -Pt 0x2 -Ph 2 -Pb 1 -Pd 9 -Pds 0 -Ps 0 -Pss 4 -Pc REQUEST 
r -t 2.005878248 -Hs 6 -Hd -2 -Ni 6 -Nx 4.10 -Ny 100.00 -Nz 0.00 -Ne -1.000000 -Nl MAC -Nw --- -Ma 0 -Md ffffffff -Ms 4 -Mt 800 -Is 4.255 -Id -1.255 -It AODV -Il 48 -If 0 -Ii 0 -Iv 29 -P aodv -Pt 0x2 -Ph 2 -Pb 1 -Pd 9 -Pds 0 -Ps 0 -Pss 4 -Pc REQUEST 
r -t 2.005878248 -Hs 8 -Hd -2 -Ni 8 -Nx 4.10 -Ny 100.00 -Nz 0.00 -Ne -1.000000 -Nl MAC -Nw --- -Ma 0 -Md ffffffff -Ms 4 -Mt 800 -Is 4.255 -Id -1.255 -It AODV -Il 48 -If 0 -Ii 0 -Iv 29 -P aodv -Pt 0x2 -Ph 2 -Pb 1 -Pd 9 -Pds 0 -Ps 0 -Pss 4 -Pc REQUEST 
r -t 2.005878248 -Hs 10 -Hd -2 -Ni 10 -Nx 4.10 -Ny 100.00 -Nz 0.00 -Ne -1.000000 -Nl MAC -Nw --- -Ma 0 -Md ffffffff -Ms 4 -Mt 800 -Is 4.255 -Id -1.255 -It AODV -Il 48 -If 0 -Ii 0 -Iv 29 -P aodv -Pt 0x2 -Ph 2 -Pb 1 -Pd 9 -Pds 0 -Ps 0 -Pss 4 -Pc REQUEST 
r -t 2.005878248 -Hs 12 -Hd -2 -Ni 12 -Nx 4.10 -Ny 100.00 -Nz 0.00 -Ne -1.000000 -Nl MAC -Nw --- -Ma 0 -Md ffffffff -Ms 4 -Mt 800 -Is 4.255 -Id -1.255 -It AODV -Il 48 -If 0 -Ii 0 -Iv 29 -P aodv -Pt 0x2 -Ph 2 -Pb 1 -Pd 9 -Pds 0 -Ps 0 -Pss 4 -Pc REQUEST 
r -t 2.005878248 -Hs 14 -Hd -2 -Ni 14 -Nx 4.10 -Ny 100.00 -Nz 0.00 -Ne -1.000000 -Nl MAC -Nw --- -Ma 0 -Md ffffffff -Ms 4 -Mt 800 -Is 4.255 -Id -1.255 -It AODV -Il 48 -If 0 -Ii 0 -Iv 29 -P aodv -Pt 0x2 -Ph 2 -Pb 1 -Pd 9 -Pds 0 -Ps 0 -Pss 4 -Pc REQUEST 
r -t 2.005878252 -Hs 0 -Hd -2 -Ni 0 -Nx 5.22 -Ny 100.00 -Nz 0.00 -Ne -1.000000 -Nl MAC -Nw --- -Ma 0 -Md ffffffff -Ms 4 -Mt 800 -Is 4.255 -Id -1.255 -It AODV -Il 48 -If 0 -Ii 0 -Iv 29 -P aodv -Pt 0x2 -Ph 2 -Pb 1 -Pd 9 -Pds 0 -Ps 0 -Pss 4 -Pc REQUEST 
r -t 2.005878255 -Hs 1 -Hd -2 -Ni 1 -Nx 6.10 -Ny 100.00 -Nz 0.00 -Ne -1.000000 -Nl MAC -Nw --- -Ma 0 -Md ffffffff -Ms 4 -Mt 800 -Is 4.255 -Id -1.255 -It AODV -Il 48 -If 0 -Ii 0 -Iv 29 -P aodv -Pt 0x2 -Ph 2 -Pb 1 -Pd 9 -Pds 0 -Ps 0 -Pss 4 -Pc REQUEST 
r -t 2.005878255 -Hs 3 -Hd -2 -Ni 3 -Nx 6.10 -Ny 100.00 -Nz 0.00 -Ne -1.000000 -Nl MAC -Nw --- -Ma 0 -Md ffffffff -Ms 4 -Mt 800 -Is 4.255 -Id -1.255 -It AODV -Il 48 -If 0 -Ii 0 -Iv 29 -P aodv -Pt 0x2 -Ph 2 -Pb 1 -Pd 9 -Pds 0 -Ps 0 -Pss 4 -Pc REQUEST 
r -t 2.005878255 -Hs 5 -Hd -2 -Ni 5 -Nx 6.10 -Ny 100.00 -Nz 0.00 -Ne -1.000000 -Nl MAC -Nw --- -Ma 0 -Md ffffffff -Ms 4 -Mt 800 -Is 4.255 -Id -1.255 -It AODV -Il 48 -If 0 -Ii 0 -Iv 29 -P aodv -Pt 0x2 -Ph 2 -Pb 1 -Pd 9 -Pds 0 -Ps 0 -Pss 4 -Pc REQUEST 
r -t 2.005878255 -Hs 7 -Hd -2 -Ni 7 -Nx 6.10 -Ny 100.00 -Nz 0.00 -Ne -1.000000 -Nl MAC -Nw --- -Ma 0 -Md ffffffff -Ms 4 -Mt 800 -Is 4.255 -Id -1.255 -It AODV -Il 48 -If 0 -Ii 0 -Iv 29 -P aodv -Pt 0x2 -Ph 2 -Pb 1 -Pd 9 -Pds 0 -Ps 0 -Pss 4 -Pc REQUEST 
r -t 2.005878255 -Hs 9 -Hd -2 -Ni 9 -Nx 6.10 -Ny 100.00 -Nz 0.00 -Ne -1.000000 -Nl MAC -Nw --- -Ma 0 -Md ffffffff -Ms 4 -Mt 800 -Is 4.255 -Id -1.255 -It AODV -Il 48 -If 0 -Ii 0 -Iv 29 -P aodv -Pt 0x2 -Ph 2 -Pb 1 -Pd 9 -Pds 0 -Ps 0 -Pss 4 -Pc REQUEST 
r -t 2.005878255 -Hs 11 -Hd -2 -Ni 11 -Nx 6.10 -Ny 100.00 -Nz 0.00 -Ne -1.000000 -Nl MAC -Nw --- -Ma 0 -Md ffffffff -Ms 4 -Mt 800 -Is 4.255 -Id -1.255 -It AODV -Il 48 -If 0 -Ii 0 -Iv 29 -P aodv -Pt 0x2 -Ph 2 -Pb 1 -Pd 9 -Pds 0 -Ps 0 -Pss 4 -Pc REQUEST 
r -t 2.005878255 -Hs 13 -Hd -2 -Ni 13 -Nx 6.10 -Ny 100.00 -Nz 0.00 -Ne -1.000000 -Nl MAC -Nw --- -Ma 0 -Md ffffffff -Ms 4 -Mt 800 -Is 4.255 -Id -1.255 -It AODV -Il 48 -If 0 -Ii 0 -Iv 29 -P aodv -Pt 0x2 -Ph 2 -Pb 1 -Pd 9 -Pds 0 -Ps 0 -Pss 4 -Pc REQUEST 
r -t 2.005878255 -Hs 15 -Hd -2 -Ni 15 -Nx 6.10 -Ny 100.00 -Nz 0.00 -Ne -1.000000 -Nl MAC -Nw --- -Ma 0 -Md ffffffff -Ms 4 -Mt 800 -Is 4.255 -Id -1.255 -It AODV -Il 48 -If 0 -Ii 0 -Iv 29 -P aodv -Pt 0x2 -Ph 2 -Pb 1 -Pd 9 -Pds 0 -Ps 0 -Pss 4 -Pc REQUEST 
r -t 2.005903248 -Hs 2 -Hd -2 -Ni 2 -Nx 4.10 -Ny 100.00 -Nz 0.00 -Ne -1.000000 -Nl RTR -Nw --- -Ma 0 -Md ffffffff -Ms 4 -Mt 800 -Is 4.255 -Id -1.255 -It AODV -Il 48 -If 0 -Ii 0 -Iv 29 -P aodv -Pt 0x2 -Ph 2 -Pb 1 -Pd 9 -Pds 0 -Ps 0 -Pss 4 -Pc REQUEST 
r -t 2.005903248 -Hs 6 -Hd -2 -Ni 6 -Nx 4.10 -Ny 100.00 -Nz 0.00 -Ne -1.000000 -Nl RTR -Nw --- -Ma 0 -Md ffffffff -Ms 4 -Mt 800 -Is 4.255 -Id -1.255 -It AODV -Il 48 -If 0 -Ii 0 -Iv 29 -P aodv -Pt 0x2 -Ph 2 -Pb 1 -Pd 9 -Pds 0 -Ps 0 -Pss 4 -Pc REQUEST 
r -t 2.005903248 -Hs 8 -Hd -2 -Ni 8 -Nx 4.10 -Ny 100.00 -Nz 0.00 -Ne -1.000000 -Nl RTR -Nw --- -Ma 0 -Md ffffffff -Ms 4 -Mt 800 -Is 4.255 -Id -1.255 -It AODV -Il 48 -If 0 -Ii 0 -Iv 29 -P aodv -Pt 0x2 -Ph 2 -Pb 1 -Pd 9 -Pds 0 -Ps 0 -Pss 4 -Pc REQUEST 
r -t 2.005903248 -Hs 10 -Hd -2 -Ni 10 -Nx 4.10 -Ny 100.00 -Nz 0.00 -Ne -1.000000 -Nl RTR -Nw --- -Ma 0 -Md ffffffff -Ms 4 -Mt 800 -Is 4.255 -Id -1.255 -It AODV -Il 48 -If 0 -Ii 0 -Iv 29 -P aodv -Pt 0x2 -Ph 2 -Pb 1 -Pd 9 -Pds 0 -Ps 0 -Pss 4 -Pc REQUEST 
r -t 2.005903248 -Hs 12 -Hd -2 -Ni 12 -Nx 4.10 -Ny 100.00 -Nz 0.00 -Ne -1.000000 -Nl RTR -Nw --- -Ma 0 -Md ffffffff -Ms 4 -Mt 800 -Is 4.255 -Id -1.255 -It AODV -Il 48 -If 0 -Ii 0 -Iv 29 -P aodv -Pt 0x2 -Ph 2 -Pb 1 -Pd 9 -Pds 0 -Ps 0 -Pss 4 -Pc REQUEST 
r -t 2.005903248 -Hs 14 -Hd -2 -Ni 14 -Nx 4.10 -Ny 100.00 -Nz 0.00 -Ne -1.000000 -Nl RTR -Nw --- -Ma 0 -Md ffffffff -Ms 4 -Mt 800 -Is 4.255 -Id -1.255 -It AODV -Il 48 -If 0 -Ii 0 -Iv 29 -P aodv -Pt 0x2 -Ph 2 -Pb 1 -Pd 9 -Pds 0 -Ps 0 -Pss 4 -Pc REQUEST 
r -t 2.005903252 -Hs 0 -Hd -2 -Ni 0 -Nx 5.22 -Ny 100.00 -Nz 0.00 -Ne -1.000000 -Nl RTR -Nw --- -Ma 0 -Md ffffffff -Ms 4 -Mt 800 -Is 4.255 -Id -1.255 -It AODV -Il 48 -If 0 -Ii 0 -Iv 29 -P aodv -Pt 0x2 -Ph 2 -Pb 1 -Pd 9 -Pds 0 -Ps 0 -Pss 4 -Pc REQUEST 
r -t 2.005903255 -Hs 1 -Hd -2 -Ni 1 -Nx 6.10 -Ny 100.00 -Nz 0.00 -Ne -1.000000 -Nl RTR -Nw --- -Ma 0 -Md ffffffff -Ms 4 -Mt 800 -Is 4.255 -Id -1.255 -It AODV -Il 48 -If 0 -Ii 0 -Iv 29 -P aodv -Pt 0x2 -Ph 2 -Pb 1 -Pd 9 -Pds 0 -Ps 0 -Pss 4 -Pc REQUEST 
r -t 2.005903255 -Hs 3 -Hd -2 -Ni 3 -Nx 6.10 -Ny 100.00 -Nz 0.00 -Ne -1.000000 -Nl RTR -Nw --- -Ma 0 -Md ffffffff -Ms 4 -Mt 800 -Is 4.255 -Id -1.255 -It AODV -Il 48 -If 0 -Ii 0 -Iv 29 -P aodv -Pt 0x2 -Ph 2 -Pb 1 -Pd 9 -Pds 0 -Ps 0 -Pss 4 -Pc REQUEST 
r -t 2.005903255 -Hs 5 -Hd -2 -Ni 5 -Nx 6.10 -Ny 100.00 -Nz 0.00 -Ne -1.000000 -Nl RTR -Nw --- -Ma 0 -Md ffffffff -Ms 4 -Mt 800 -Is 4.255 -Id -1.255 -It AODV -Il 48 -If 0 -Ii 0 -Iv 29 -P aodv -Pt 0x2 -Ph 2 -Pb 1 -Pd 9 -Pds 0 -Ps 0 -Pss 4 -Pc REQUEST 
r -t 2.005903255 -Hs 7 -Hd -2 -Ni 7 -Nx 6.10 -Ny 100.00 -Nz 0.00 -Ne -1.000000 -Nl RTR -Nw --- -Ma 0 -Md ffffffff -Ms 4 -Mt 800 -Is 4.255 -Id -1.255 -It AODV -Il 48 -If 0 -Ii 0 -Iv 29 -P aodv -Pt 0x2 -Ph 2 -Pb 1 -Pd 9 -Pds 0 -Ps 0 -Pss 4 -Pc REQUEST 
r -t 2.005903255 -Hs 9 -Hd -2 -Ni 9 -Nx 6.10 -Ny 100.00 -Nz 0.00 -Ne -1.000000 -Nl RTR -Nw --- -Ma 0 -Md ffffffff -Ms 4 -Mt 800 -Is 4.255 -Id -1.255 -It AODV -Il 48 -If 0 -Ii 0 -Iv 29 -P aodv -Pt 0x2 -Ph 2 -Pb 1 -Pd 9 -Pds 0 -Ps 0 -Pss 4 -Pc REQUEST 
r -t 2.005903255 -Hs 11 -Hd -2 -Ni 11 -Nx 6.10 -Ny 100.00 -Nz 0.00 -Ne -1.000000 -Nl RTR -Nw --- -Ma 0 -Md ffffffff -Ms 4 -Mt 800 -Is 4.255 -Id -1.255 -It AODV -Il 48 -If 0 -Ii 0 -Iv 29 -P aodv -Pt 0x2 -Ph 2 -Pb 1 -Pd 9 -Pds 0 -Ps 0 -Pss 4 -Pc REQUEST 