s -t 1.000000000 -Hs 0 -Hd -2 -Ni 0 -Nx 1000.00 -Ny 100.00 -Nz 0.00 -Ne -1.000000 -Nl AGT -Nw --- -Ma 0 -Md 0 -Ms 0 -Mt 0 -Is 0.0 -Id 9.0 -It tcp -Il 40 -If 2 -Ii 0 -Iv 32 -Pn tcp -Ps 0 -Pa 0 -Pf 0 -Po 0 
r -t 1.000000000 -Hs 0 -Hd -2 -Ni 0 -Nx 1000.00 -Ny 100.00 -Nz 0.00 -Ne -1.000000 -Nl RTR -Nw --- -Ma 0 -Md 0 -Ms 0 -Mt 0 -Is 0.0 -Id 9.0 -It tcp -Il 40 -If 2 -Ii 0 -Iv 32 -Pn tcp -Ps 0 -Pa 0 -Pf 0 -Po 0 
s -t 1.000000000 -Hs 0 -Hd -2 -Ni 0 -Nx 1000.00 -Ny 100.00 -Nz 0.00 -Ne -1.000000 -Nl RTR -Nw --- -Ma 0 -Md 0 -Ms 0 -Mt 0 -Is 0.255 -Id -1.255 -It AODV -Il 48 -If 0 -Ii 0 -Iv 30 -P aodv -Pt 0x2 -Ph 1 -Pb 1 -Pd 9 -Pds 0 -Ps 0 -Pss 4 -Pc REQUEST 
s -t 1.000115000 -Hs 0 -Hd -2 -Ni 0 -Nx 1000.00 -Ny 100.00 -Nz 0.00 -Ne -1.000000 -Nl MAC -Nw --- -Ma 0 -Md ffffffff -Ms 0 -Mt 800 -Is 0.255 -Id -1.255 -It AODV -Il 106 -If 0 -Ii 0 -Iv 30 -P aodv -Pt 0x2 -Ph 1 -Pb 1 -Pd 9 -Pds 0 -Ps 0 -Pss 4 -Pc REQUEST 
r -t 1.000963667 -Hs 1 -Hd -2 -Ni 1 -Nx 800.00 -Ny 100.00 -Nz 0.00 -Ne -1.000000 -Nl MAC -Nw --- -Ma 0 -Md ffffffff -Ms 0 -Mt 800 -Is 0.255 -Id -1.255 -It AODV -Il 48 -If 0 -Ii 0 -Iv 30 -P aodv -Pt 0x2 -Ph 1 -Pb 1 -Pd 9 -Pds 0 -Ps 0 -Pss 4 -Pc REQUEST 
r -t 1.000963745 -Hs 5 -Hd -2 -Ni 5 -Nx 900.00 -Ny 300.00 -Nz 0.00 -Ne -1.000000 -Nl MAC -Nw --- -Ma 0 -Md ffffffff -Ms 0 -Mt 800 -Is 0.255 -Id -1.255 -It AODV -Il 48 -If 0 -Ii 0 -Iv 30 -P aodv -Pt 0x2 -Ph 1 -Pb 1 -Pd 9 -Pds 0 -Ps 0 -Pss 4 -Pc REQUEST 
r -t 1.000988667 -Hs 1 -Hd -2 -Ni 1 -Nx 800.00 -Ny 100.00 -Nz 0.00 -Ne -1.000000 -Nl RTR -Nw --- -Ma 0 -Md ffffffff -Ms 0 -Mt 800 -Is 0.255 -Id -1.255 -It AODV -Il 48 -If 0 -Ii 0 -Iv 30 -P aodv -Pt 0x2 -Ph 1 -Pb 1 -Pd 9 -Pds 0 -Ps 0 -Pss 4 -Pc REQUEST 
r -t 1.000988745 -Hs 5 -Hd -2 -Ni 5 -Nx 900.00 -Ny 300.00 -Nz 0.00 -Ne -1.000000 -Nl RTR -Nw --- -Ma 0 -Md ffffffff -Ms 0 -Mt 800 -Is 0.255 -Id -1.255 -It AODV -Il 48 -If 0 -Ii 0 -Iv 30 -P aodv -Pt 0x2 -Ph 1 -Pb 1 -Pd 9 -Pds 0 -Ps 0 -Pss 4 -Pc REQUEST 
s -t 1.001869893 -Hs 1 -Hd -2 -Ni 1 -Nx 800.00 -Ny 100.00 -Nz 0.00 -Ne -1.000000 -Nl RTR -Nw --- -Ma 0 -Md ffffffff -Ms 0 -Mt 800 -Is 1.255 -Id -1.255 -It AODV -Il 48 -If 0 -Ii 0 -Iv 29 -P aodv -Pt 0x2 -Ph 2 -Pb 1 -Pd 9 -Pds 0 -Ps 0 -Pss 4 -Pc REQUEST 
s -t 1.001944893 -Hs 1 -Hd -2 -Ni 1 -Nx 800.00 -Ny 100.00 -Nz 0.00 -Ne -1.000000 -Nl MAC -Nw --- -Ma 0 -Md ffffffff -Ms 1 -Mt 800 -Is 1.255 -Id -1.255 -It AODV -Il 106 -If 0 -Ii 0 -Iv 29 -P aodv -Pt 0x2 -Ph 2 -Pb 1 -Pd 9 -Pds 0 -Ps 0 -Pss 4 -Pc REQUEST 
r -t 1.002793560 -Hs 2 -Hd -2 -Ni 2 -Nx 600.00 -Ny 100.00 -Nz 0.00 -Ne -1.000000 -Nl MAC -Nw --- -Ma 0 -Md ffffffff -Ms 1 -Mt 800 -Is 1.255 -Id -1.255 -It AODV -Il 48 -If 0 -Ii 0 -Iv 29 -P aodv -Pt 0x2 -Ph 2 -Pb 1 -Pd 9 -Pds 0 -Ps 0 -Pss 4 -Pc REQUEST 
r -t 1.002793560 -Hs 0 -Hd -2 -Ni 0 -Nx 1000.00 -Ny 100.00 -Nz 0.00 -Ne -1.000000 -Nl MAC -Nw --- -Ma 0 -Md ffffffff -Ms 1 -Mt 800 -Is 1.255 -Id -1.255 -It AODV -Il 48 -If 0 -Ii 0 -Iv 29 -P aodv -Pt 0x2 -Ph 2 -Pb 1 -Pd 9 -Pds 0 -Ps 0 -Pss 4 -Pc REQUEST 
r -t 1.002793639 -Hs 6 -Hd -2 -Ni 6 -Nx 700.00 -Ny 300.00 -Nz 0.00 -Ne -1.000000 -Nl MAC -Nw --- -Ma 0 -Md ffffffff -Ms 1 -Mt 800 -Is 1.255 -Id -1.255 -It AODV -Il 48 -If 0 -Ii 0 -Iv 29 -P aodv -Pt 0x2 -Ph 2 -Pb 1 -Pd 9 -Pds 0 -Ps 0 -Pss 4 -Pc REQUEST 
r -t 1.002793639 -Hs 5 -Hd -2 -Ni 5 -Nx 900.00 -Ny 300.00 -Nz 0.00 -Ne -1.000000 -Nl MAC -Nw --- -Ma 0 -Md ffffffff -Ms 1 -Mt 800 -Is 1.255 -Id -1.255 -It AODV -Il 48 -If 0 -Ii 0 -Iv 29 -P aodv -Pt 0x2 -Ph 2 -Pb 1 -Pd 9 -Pds 0 -Ps 0 -Pss 4 -Pc REQUEST 
r -t 1.002818560 -Hs 2 -Hd -2 -Ni 2 -Nx 600.00 -Ny 100.00 -Nz 0.00 -Ne -1.000000 -Nl RTR -Nw --- -Ma 0 -Md ffffffff -Ms 1 -Mt 800 -Is 1.255 -Id -1.255 -It AODV -Il 48 -If 0 -Ii 0 -Iv 29 -P aodv -Pt 0x2 -Ph 2 -Pb 1 -Pd 9 -Pds 0 -Ps 0 -Pss 4 -Pc REQUEST 
r -t 1.002818560 -Hs 0 -Hd -2 -Ni 0 -Nx 1000.00 -Ny 100.00 -Nz 0.00 -Ne -1.000000 -Nl RTR -Nw --- -Ma 0 -Md ffffffff -Ms 1 -Mt 800 -Is 1.255 -Id -1.255 -It AODV -Il 48 -If 0 -Ii 0 -Iv 29 -P aodv -Pt 0x2 -Ph 2 -Pb 1 -Pd 9 -Pds 0 -Ps 0 -Pss 4 -Pc REQUEST 
r -t 1.002818639 -Hs 6 -Hd -2 -Ni 6 -Nx 700.00 -Ny 300.00 -Nz 0.00 -Ne -1.000000 -Nl RTR -Nw --- -Ma 0 -Md ffffffff -Ms 1 -Mt 800 -Is 1.255 -Id -1.255 -It AODV -Il 48 -If 0 -Ii 0 -Iv 29 -P aodv -Pt 0x2 -Ph 2 -Pb 1 -Pd 9 -Pds 0 -Ps 0 -Pss 4 -Pc REQUEST 
r -t 1.002818639 -Hs 5 -Hd -2 -Ni 5 -Nx 900.00 -Ny 300.00 -Nz 0.00 -Ne -1.000000 -Nl RTR -Nw --- -Ma 0 -Md ffffffff -Ms 1 -Mt 800 -Is 1.255 -Id -1.255 -It AODV -Il 48 -If 0 -Ii 0 -Iv 29 -P aodv -Pt 0x2 -Ph 2 -Pb 1 -Pd 9 -Pds 0 -Ps 0 -Pss 4 -Pc REQUEST 
s -t 1.005164656 -Hs 6 -Hd -2 -Ni 6 -Nx 700.00 -Ny 300.00 -Nz 0.00 -Ne -1.000000 -Nl RTR -Nw --- -Ma 0 -Md ffffffff -Ms 1 -Mt 800 -Is 6.255 -Id -1.255 -It AODV -Il 48 -If 0 -Ii 0 -Iv 28 -P aodv -Pt 0x2 -Ph 3 -Pb 1 -Pd 9 -Pds 0 -Ps 0 -Pss 4 -Pc REQUEST 
s -t 1.005400479 -Hs 5 -Hd -2 -Ni 5 -Nx 900.00 -Ny 300.00 -Nz 0.00 -Ne -1.000000 -Nl RTR -Nw --- -Ma 0 -Md ffffffff -Ms 0 -Mt 800 -Is 5.255 -Id -1.255 -It AODV -Il 48 -If 0 -Ii 0 -Iv 29 -P aodv -Pt 0x2 -Ph 2 -Pb 1 -Pd 9 -Pds 0 -Ps 0 -Pss 4 -Pc REQUEST 
s -t 1.005599656 -Hs 6 -Hd -2 -Ni 6 -Nx 700.00 -Ny 300.00 -Nz 0.00 -Ne -1.000000 -Nl MAC -Nw --- -Ma 0 -Md ffffffff -Ms 6 -Mt 800 -Is 6.255 -Id -1.255 -It AODV -Il 106 -If 0 -Ii 0 -Iv 28 -P aodv -Pt 0x2 -Ph 3 -Pb 1 -Pd 9 -Pds 0 -Ps 0 -Pss 4 -Pc REQUEST 
r -t 1.006448323 -Hs 7 -Hd -2 -Ni 7 -Nx 500.00 -Ny 300.00 -Nz 0.00 -Ne -1.000000 -Nl MAC -Nw --- -Ma 0 -Md ffffffff -Ms 6 -Mt 800 -Is 6.255 -Id -1.255 -It AODV -Il 48 -If 0 -Ii 0 -Iv 28 -P aodv -Pt 0x2 -Ph 3 -Pb 1 -Pd 9 -Pds 0 -Ps 0 -Pss 4 -Pc REQUEST 
r -t 1.006448323 -Hs 5 -Hd -2 -Ni 5 -Nx 900.00 -Ny 300.00 -Nz 0.00 -Ne -1.000000 -Nl MAC -Nw --- -Ma 0 -Md ffffffff -Ms 6 -Mt 800 -Is 6.255 -Id -1.255 -It AODV -Il 48 -If 0 -Ii 0 -Iv 28 -P aodv -Pt 0x2 -Ph 3 -Pb 1 -Pd 9 -Pds 0 -Ps 0 -Pss 4 -Pc REQUEST 
r -t 1.006448402 -Hs 2 -Hd -2 -Ni 2 -Nx 600.00 -Ny 100.00 -Nz 0.00 -Ne -1.000000 -Nl MAC -Nw --- -Ma 0 -Md ffffffff -Ms 6 -Mt 800 -Is 6.255 -Id -1.255 -It AODV -Il 48 -If 0 -Ii 0 -Iv 28 -P aodv -Pt 0x2 -Ph 3 -Pb 1 -Pd 9 -Pds 0 -Ps 0 -Pss 4 -Pc REQUEST 
r -t 1.006448402 -Hs 1 -Hd -2 -Ni 1 -Nx 800.00 -Ny 100.00 -Nz 0.00 -Ne -1.000000 -Nl MAC -Nw --- -Ma 0 -Md ffffffff -Ms 6 -Mt 800 -Is 6.255 -Id -1.255 -It AODV -Il 48 -If 0 -Ii 0 -Iv 28 -P aodv -Pt 0x2 -Ph 3 -Pb 1 -Pd 9 -Pds 0 -Ps 0 -Pss 4 -Pc REQUEST 
r -t 1.006473323 -Hs 7 -Hd -2 -Ni 7 -Nx 500.00 -Ny 300.00 -Nz 0.00 -Ne -1.000000 -Nl RTR -Nw --- -Ma 0 -Md ffffffff -Ms 6 -Mt 800 -Is 6.255 -Id -1.255 -It AODV -Il 48 -If 0 -Ii 0 -Iv 28 -P aodv -Pt 0x2 -Ph 3 -Pb 1 -Pd 9 -Pds 0 -Ps 0 -Pss 4 -Pc REQUEST 
r -t 1.006473323 -Hs 5 -Hd -2 -Ni 5 -Nx 900.00 -Ny 300.00 -Nz 0.00 -Ne -1.000000 -Nl RTR -Nw --- -Ma 0 -Md ffffffff -Ms 6 -Mt 800 -Is 6.255 -Id -1.255 -It AODV -Il 48 -If 0 -Ii 0 -Iv 28 -P aodv -Pt 0x2 -Ph 3 -Pb 1 -Pd 9 -Pds 0 -Ps 0 -Pss 4 -Pc REQUEST 
r -t 1.006473402 -Hs 2 -Hd -2 -Ni 2 -Nx 600.00 -Ny 100.00 -Nz 0.00 -Ne -1.000000 -Nl RTR -Nw --- -Ma 0 -Md ffffffff -Ms 6 -Mt 800 -Is 6.255 -Id -1.255 -It AODV -Il 48 -If 0 -Ii 0 -Iv 28 -P aodv -Pt 0x2 -Ph 3 -Pb 1 -Pd 9 -Pds 0 -Ps 0 -Pss 4 -Pc REQUEST 
r -t 1.006473402 -Hs 1 -Hd -2 -Ni 1 -Nx 800.00 -Ny 100.00 -Nz 0.00 -Ne -1.000000 -Nl RTR -Nw --- -Ma 0 -Md ffffffff -Ms 6 -Mt 800 -Is 6.255 -Id -1.255 -It AODV -Il 48 -If 0 -Ii 0 -Iv 28 -P aodv -Pt 0x2 -Ph 3 -Pb 1 -Pd 9 -Pds 0 -Ps 0 -Pss 4 -Pc REQUEST 
s -t 1.006638323 -Hs 5 -Hd -2 -Ni 5 -Nx 900.00 -Ny 300.00 -Nz 0.00 -Ne -1.000000 -Nl MAC -Nw --- -Ma 0 -Md ffffffff -Ms 5 -Mt 800 -Is 5.255 -Id -1.255 -It AODV -Il 106 -If 0 -Ii 0 -Iv 29 -P aodv -Pt 0x2 -Ph 2 -Pb 1 -Pd 9 -Pds 0 -Ps 0 -Pss 4 -Pc REQUEST 
r -t 1.007486990 -Hs 6 -Hd -2 -Ni 6 -Nx 700.00 -Ny 300.00 -Nz 0.00 -Ne -1.000000 -Nl MAC -Nw --- -Ma 0 -Md ffffffff -Ms 5 -Mt 800 -Is 5.255 -Id -1.255 -It AODV -Il 48 -If 0 -Ii 0 -Iv 29 -P aodv -Pt 0x2 -Ph 2 -Pb 1 -Pd 9 -Pds 0 -Ps 0 -Pss 4 -Pc REQUEST 
r -t 1.007487068 -Hs 1 -Hd -2 -Ni 1 -Nx 800.00 -Ny 100.00 -Nz 0.00 -Ne -1.000000 -Nl MAC -Nw --- -Ma 0 -Md ffffffff -Ms 5 -Mt 800 -Is 5.255 -Id -1.255 -It AODV -Il 48 -If 0 -Ii 0 -Iv 29 -P aodv -Pt 0x2 -Ph 2 -Pb 1 -Pd 9 -Pds 0 -Ps 0 -Pss 4 -Pc REQUEST 
r -t 1.007487068 -Hs 0 -Hd -2 -Ni 0 -Nx 1000.00 -Ny 100.00 -Nz 0.00 -Ne -1.000000 -Nl MAC -Nw --- -Ma 0 -Md ffffffff -Ms 5 -Mt 800 -Is 5.255 -Id -1.255 -It AODV -Il 48 -If 0 -Ii 0 -Iv 29 -P aodv -Pt 0x2 -Ph 2 -Pb 1 -Pd 9 -Pds 0 -Ps 0 -Pss 4 -Pc REQUEST 
r -t 1.007511990 -Hs 6 -Hd -2 -Ni 6 -Nx 700.00 -Ny 300.00 -Nz 0.00 -Ne -1.000000 -Nl RTR -Nw --- -Ma 0 -Md ffffffff -Ms 5 -Mt 800 -Is 5.255 -Id -1.255 -It AODV -Il 48 -If 0 -Ii 0 -Iv 29 -P aodv -Pt 0x2 -Ph 2 -Pb 1 -Pd 9 -Pds 0 -Ps 0 -Pss 4 -Pc REQUEST 
r -t 1.007512068 -Hs 1 -Hd -2 -Ni 1 -Nx 800.00 -Ny 100.00 -Nz 0.00 -Ne -1.000000 -Nl RTR -Nw --- -Ma 0 -Md ffffffff -Ms 5 -Mt 800 -Is 5.255 -Id -1.255 -It AODV -Il 48 -If 0 -Ii 0 -Iv 29 -P aodv -Pt 0x2 -Ph 2 -Pb 1 -Pd 9 -Pds 0 -Ps 0 -Pss 4 -Pc REQUEST 
r -t 1.007512068 -Hs 0 -Hd -2 -Ni 0 -Nx 1000.00 -Ny 100.00 -Nz 0.00 -Ne -1.000000 -Nl RTR -Nw --- -Ma 0 -Md ffffffff -Ms 5 -Mt 800 -Is 5.255 -Id -1.255 -It AODV -Il 48 -If 0 -Ii 0 -Iv 29 -P aodv -Pt 0x2 -Ph 2 -Pb 1 -Pd 9 -Pds 0 -Ps 0 -Pss 4 -Pc REQUEST 
s -t 1.008114777 -Hs 7 -Hd -2 -Ni 7 -Nx 500.00 -Ny 300.00 -Nz 0.00 -Ne -1.000000 -Nl RTR -Nw --- -Ma 0 -Md ffffffff -Ms 6 -Mt 800 -Is 7.255 -Id -1.255 -It AODV -Il 48 -If 0 -Ii 0 -Iv 27 -P aodv -Pt 0x2 -Ph 4 -Pb 1 -Pd 9 -Pds 0 -Ps 0 -Pss 4 -Pc REQUEST 
s -t 1.008349777 -Hs 7 -Hd -2 -Ni 7 -Nx 500.00 -Ny 300.00 -Nz 0.00 -Ne -1.000000 -Nl MAC -Nw --- -Ma 0 -Md ffffffff -Ms 7 -Mt 800 -Is 7.255 -Id -1.255 -It AODV -Il 106 -If 0 -Ii 0 -Iv 27 -P aodv -Pt 0x2 -Ph 4 -Pb 1 -Pd 9 -Pds 0 -Ps 0 -Pss 4 -Pc REQUEST 
r -t 1.009198444 -Hs 8 -Hd -2 -Ni 8 -Nx 300.00 -Ny 300.00 -Nz 0.00 -Ne -1.000000 -Nl MAC -Nw --- -Ma 0 -Md ffffffff -Ms 7 -Mt 800 -Is 7.255 -Id -1.255 -It AODV -Il 48 -If 0 -Ii 0 -Iv 27 -P aodv -Pt 0x2 -Ph 4 -Pb 1 -Pd 9 -Pds 0 -Ps 0 -Pss 4 -Pc REQUEST 
r -t 1.009198444 -Hs 6 -Hd -2 -Ni 6 -Nx 700.00 -Ny 300.00 -Nz 0.00 -Ne -1.000000 -Nl MAC -Nw --- -Ma 0 -Md ffffffff -Ms 7 -Mt 800 -Is 7.255 -Id -1.255 -It AODV -Il 48 -If 0 -Ii 0 -Iv 27 -P aodv -Pt 0x2 -Ph 4 -Pb 1 -Pd 9 -Pds 0 -Ps 0 -Pss 4 -Pc REQUEST 
r -t 1.009198522 -Hs 3 -Hd -2 -Ni 3 -Nx 400.00 -Ny 100.00 -Nz 0.00 -Ne -1.000000 -Nl MAC -Nw --- -Ma 0 -Md ffffffff -Ms 7 -Mt 800 -Is 7.255 -Id -1.255 -It AODV -Il 48 -If 0 -Ii 0 -Iv 27 -P aodv -Pt 0x2 -Ph 4 -Pb 1 -Pd 9 -Pds 0 -Ps 0 -Pss 4 -Pc REQUEST 
r -t 1.009198522 -Hs 2 -Hd -2 -Ni 2 -Nx 600.00 -Ny 100.00 -Nz 0.00 -Ne -1.000000 -Nl MAC -Nw --- -Ma 0 -Md ffffffff -Ms 7 -Mt 800 -Is 7.255 -Id -1.255 -It AODV -Il 48 -If 0 -Ii 0 -Iv 27 -P aodv -Pt 0x2 -Ph 4 -Pb 1 -Pd 9 -Pds 0 -Ps 0 -Pss 4 -Pc REQUEST 
r -t 1.009223444 -Hs 8 -Hd -2 -Ni 8 -Nx 300.00 -Ny 300.00 -Nz 0.00 -Ne -1.000000 -Nl RTR -Nw --- -Ma 0 -Md ffffffff -Ms 7 -Mt 800 -Is 7.255 -Id -1.255 -It AODV -Il 48 -If 0 -Ii 0 -Iv 27 -P aodv -Pt 0x2 -Ph 4 -Pb 1 -Pd 9 -Pds 0 -Ps 0 -Pss 4 -Pc REQUEST 
r -t 1.009223444 -Hs 6 -Hd -2 -Ni 6 -Nx 700.00 -Ny 300.00 -Nz 0.00 -Ne -1.000000 -Nl RTR -Nw --- -Ma 0 -Md ffffffff -Ms 7 -Mt 800 -Is 7.255 -Id -1.255 -It AODV -Il 48 -If 0 -Ii 0 -Iv 27 -P aodv -Pt 0x2 -Ph 4 -Pb 1 -Pd 9 -Pds 0 -Ps 0 -Pss 4 -Pc REQUEST 
r -t 1.009223522 -Hs 3 -Hd -2 -Ni 3 -Nx 400.00 -Ny 100.00 -Nz 0.00 -Ne -1.000000 -Nl RTR -Nw --- -Ma 0 -Md ffffffff -Ms 7 -Mt 800 -Is 7.255 -Id -1.255 -It AODV -Il 48 -If 0 -Ii 0 -Iv 27 -P aodv -Pt 0x2 -Ph 4 -Pb 1 -Pd 9 -Pds 0 -Ps 0 -Pss 4 -Pc REQUEST 
r -t 1.009223522 -Hs 2 -Hd -2 -Ni 2 -Nx 600.00 -Ny 100.00 -Nz 0.00 -Ne -1.000000 -Nl RTR -Nw --- -Ma 0 -Md ffffffff -Ms 7 -Mt 800 -Is 7.255 -Id -1.255 -It AODV -Il 48 -If 0 -Ii 0 -Iv 27 -P aodv -Pt 0x2 -Ph 4 -Pb 1 -Pd 9 -Pds 0 -Ps 0 -Pss 4 -Pc REQUEST 
s -t 1.010983321 -Hs 2 -Hd -2 -Ni 2 -Nx 600.00 -Ny 100.00 -Nz 0.00 -Ne -1.000000 -Nl RTR -Nw --- -Ma 0 -Md ffffffff -Ms 1 -Mt 800 -Is 2.255 -Id -1.255 -It AODV -Il 48 -If 0 -Ii 0 -Iv 28 -P aodv -Pt 0x2 -Ph 3 -Pb 1 -Pd 9 -Pds 0 -Ps 0 -Pss 4 -Pc REQUEST 
s -t 1.011538321 -Hs 2 -Hd -2 -Ni 2 -Nx 600.00 -Ny 100.00 -Nz 0.00 -Ne -1.000000 -Nl MAC -Nw --- -Ma 0 -Md ffffffff -Ms 2 -Mt 800 -Is 2.255 -Id -1.255 -It AODV -Il 106 -If 0 -Ii 0 -Iv 28 -P aodv -Pt 0x2 -Ph 3 -Pb 1 -Pd 9 -Pds 0 -Ps 0 -Pss 4 -Pc REQUEST 
r -t 1.012386987 -Hs 3 -Hd -2 -Ni 3 -Nx 400.00 -Ny 100.00 -Nz 0.00 -Ne -1.000000 -Nl MAC -Nw --- -Ma 0 -Md ffffffff -Ms 2 -Mt 800 -Is 2.255 -Id -1.255 -It AODV -Il 48 -If 0 -Ii 0 -Iv 28 -P aodv -Pt 0x2 -Ph 3 -Pb 1 -Pd 9 -Pds 0 -Ps 0 -Pss 4 -Pc REQUEST 
r -t 1.012386987 -Hs 1 -Hd -2 -Ni 1 -Nx 800.00 -Ny 100.00 -Nz 0.00 -Ne -1.000000 -Nl MAC -Nw --- -Ma 0 -Md ffffffff -Ms 2 -Mt 800 -Is 2.255 -Id -1.255 -It AODV -Il 48 -If 0 -Ii 0 -Iv 28 -P aodv -Pt 0x2 -Ph 3 -Pb 1 -Pd 9 -Pds 0 -Ps 0 -Pss 4 -Pc REQUEST 
r -t 1.012387066 -Hs 7 -Hd -2 -Ni 7 -Nx 500.00 -Ny 300.00 -Nz 0.00 -Ne -1.000000 -Nl MAC -Nw --- -Ma 0 -Md ffffffff -Ms 2 -Mt 800 -Is 2.255 -Id -1.255 -It AODV -Il 48 -If 0 -Ii 0 -Iv 28 -P aodv -Pt 0x2 -Ph 3 -Pb 1 -Pd 9 -Pds 0 -Ps 0 -Pss 4 -Pc REQUEST 
r -t 1.012387066 -Hs 6 -Hd -2 -Ni 6 -Nx 700.00 -Ny 300.00 -Nz 0.00 -Ne -1.000000 -Nl MAC -Nw --- -Ma 0 -Md ffffffff -Ms 2 -Mt 800 -Is 2.255 -Id -1.255 -It AODV -Il 48 -If 0 -Ii 0 -Iv 28 -P aodv -Pt 0x2 -Ph 3 -Pb 1 -Pd 9 -Pds 0 -Ps 0 -Pss 4 -Pc REQUEST 
r -t 1.012411987 -Hs 3 -Hd -2 -Ni 3 -Nx 400.00 -Ny 100.00 -Nz 0.00 -Ne -1.000000 -Nl RTR -Nw --- -Ma 0 -Md ffffffff -Ms 2 -Mt 800 -Is 2.255 -Id -1.255 -It AODV -Il 48 -If 0 -Ii 0 -Iv 28 -P aodv -Pt 0x2 -Ph 3 -Pb 1 -Pd 9 -Pds 0 -Ps 0 -Pss 4 -Pc REQUEST 
r -t 1.012411987 -Hs 1 -Hd -2 -Ni 1 -Nx 800.00 -Ny 100.00 -Nz 0.00 -Ne -1.000000 -Nl RTR -Nw --- -Ma 0 -Md ffffffff -Ms 2 -Mt 800 -Is 2.255 -Id -1.255 -It AODV -Il 48 -If 0 -Ii 0 -Iv 28 -P aodv -Pt 0x2 -Ph 3 -Pb 1 -Pd 9 -Pds 0 -Ps 0 -Pss 4 -Pc REQUEST 
r -t 1.012412066 -Hs 7 -Hd -2 -Ni 7 -Nx 500.00 -Ny 300.00 -Nz 0.00 -Ne -1.000000 -Nl RTR -Nw --- -Ma 0 -Md ffffffff -Ms 2 -Mt 800 -Is 2.255 -Id -1.255 -It AODV -Il 48 -If 0 -Ii 0 -Iv 28 -P aodv -Pt 0x2 -Ph 3 -Pb 1 -Pd 9 -Pds 0 -Ps 0 -Pss 4 -Pc REQUEST 
r -t 1.012412066 -Hs 6 -Hd -2 -Ni 6 -Nx 700.00 -Ny 300.00 -Nz 0.00 -Ne -1.000000 -Nl RTR -Nw --- -Ma 0 -Md ffffffff -Ms 2 -Mt 800 -Is 2.255 -Id -1.255 -It AODV -Il 48 -If 0 -Ii 0 -Iv 28 -P aodv -Pt 0x2 -Ph 3 -Pb 1 -Pd 9 -Pds 0 -Ps 0 -Pss 4 -Pc REQUEST 
s -t 1.013460090 -Hs 3 -Hd -2 -Ni 3 -Nx 400.00 -Ny 100.00 -Nz 0.00 -Ne -1.000000 -Nl RTR -Nw --- -Ma 0 -Md ffffffff -Ms 7 -Mt 800 -Is 3.255 -Id -1.255 -It AODV -Il 48 -If 0 -Ii 0 -Iv 26 -P aodv -Pt 0x2 -Ph 5 -Pb 1 -Pd 9 -Pds 0 -Ps 0 -Pss 4 -Pc REQUEST 
s -t 1.013855090 -Hs 3 -Hd -2 -Ni 3 -Nx 400.00 -Ny 100.00 -Nz 0.00 -Ne -1.000000 -Nl MAC -Nw --- -Ma 0 -Md ffffffff -Ms 3 -Mt 800 -Is 3.255 -Id -1.255 -It AODV -Il 106 -If 0 -Ii 0 -Iv 26 -P aodv -Pt 0x2 -Ph 5 -Pb 1 -Pd 9 -Pds 0 -Ps 0 -Pss 4 -Pc REQUEST 
r -t 1.014703756 -Hs 4 -Hd -2 -Ni 4 -Nx 200.00 -Ny 100.00 -Nz 0.00 -Ne -1.000000 -Nl MAC -Nw --- -Ma 0 -Md ffffffff -Ms 3 -Mt 800 -Is 3.255 -Id -1.255 -It AODV -Il 48 -If 0 -Ii 0 -Iv 26 -P aodv -Pt 0x2 -Ph 5 -Pb 1 -Pd 9 -Pds 0 -Ps 0 -Pss 4 -Pc REQUEST 
r -t 1.014703756 -Hs 2 -Hd -2 -Ni 2 -Nx 600.00 -Ny 100.00 -Nz 0.00 -Ne -1.000000 -Nl MAC -Nw --- -Ma 0 -Md ffffffff -Ms 3 -Mt 800 -Is 3.255 -Id -1.255 -It AODV -Il 48 -If 0 -Ii 0 -Iv 26 -P aodv -Pt 0x2 -Ph 5 -Pb 1 -Pd 9 -Pds 0 -Ps 0 -Pss 4 -Pc REQUEST 
r -t 1.014703835 -Hs 8 -Hd -2 -Ni 8 -Nx 300.00 -Ny 300.00 -Nz 0.00 -Ne -1.000000 -Nl MAC -Nw --- -Ma 0 -Md ffffffff -Ms 3 -Mt 800 -Is 3.255 -Id -1.255 -It AODV -Il 48 -If 0 -Ii 0 -Iv 26 -P aodv -Pt 0x2 -Ph 5 -Pb 1 -Pd 9 -Pds 0 -Ps 0 -Pss 4 -Pc REQUEST 
r -t 1.014703835 -Hs 7 -Hd -2 -Ni 7 -Nx 500.00 -Ny 300.00 -Nz 0.00 -Ne -1.000000 -Nl MAC -Nw --- -Ma 0 -Md ffffffff -Ms 3 -Mt 800 -Is 3.255 -Id -1.255 -It AODV -Il 48 -If 0 -Ii 0 -Iv 26 -P aodv -Pt 0x2 -Ph 5 -Pb 1 -Pd 9 -Pds 0 -Ps 0 -Pss 4 -Pc REQUEST 
r -t 1.014728756 -Hs 4 -Hd -2 -Ni 4 -Nx 200.00 -Ny 100.00 -Nz 0.00 -Ne -1.000000 -Nl RTR -Nw --- -Ma 0 -Md ffffffff -Ms 3 -Mt 800 -Is 3.255 -Id -1.255 -It AODV -Il 48 -If 0 -Ii 0 -Iv 26 -P aodv -Pt 0x2 -Ph 5 -Pb 1 -Pd 9 -Pds 0 -Ps 0 -Pss 4 -Pc REQUEST 
r -t 1.014728756 -Hs 2 -Hd -2 -Ni 2 -Nx 600.00 -Ny 100.00 -Nz 0.00 -Ne -1.000000 -Nl RTR -Nw --- -Ma 0 -Md ffffffff -Ms 3 -Mt 800 -Is 3.255 -Id -1.255 -It AODV -Il 48 -If 0 -Ii 0 -Iv 26 -P aodv -Pt 0x2 -Ph 5 -Pb 1 -Pd 9 -Pds 0 -Ps 0 -Pss 4 -Pc REQUEST 
r -t 1.014728835 -Hs 8 -Hd -2 -Ni 8 -Nx 300.00 -Ny 300.00 -Nz 0.00 -Ne -1.000000 -Nl RTR -Nw --- -Ma 0 -Md ffffffff -Ms 3 -Mt 800 -Is 3.255 -Id -1.255 -It AODV -Il 48 -If 0 -Ii 0 -Iv 26 -P aodv -Pt 0x2 -Ph 5 -Pb 1 -Pd 9 -Pds 0 -Ps 0 -Pss 4 -Pc REQUEST 
r -t 1.014728835 -Hs 7 -Hd -2 -Ni 7 -Nx 500.00 -Ny 300.00 -Nz 0.00 -Ne -1.000000 -Nl RTR -Nw --- -Ma 0 -Md ffffffff -Ms 3 -Mt 800 -Is 3.255 -Id -1.255 -It AODV -Il 48 -If 0 -Ii 0 -Iv 26 -P aodv -Pt 0x2 -Ph 5 -Pb 1 -Pd 9 -Pds 0 -Ps 0 -Pss 4 -Pc REQUEST 
s -t 1.017309636 -Hs 4 -Hd -2 -Ni 4 -Nx 200.00 -Ny 100.00 -Nz 0.00 -Ne -1.000000 -Nl RTR -Nw --- -Ma 0 -Md ffffffff -Ms 3 -Mt 800 -Is 4.255 -Id -1.255 -It AODV -Il 48 -If 0 -Ii 0 -Iv 25 -P aodv -Pt 0x2 -Ph 6 -Pb 1 -Pd 9 -Pds 0 -Ps 0 -Pss 4 -Pc REQUEST 
s -t 1.017404636 -Hs 4 -Hd -2 -Ni 4 -Nx 200.00 -Ny 100.00 -Nz 0.00 -Ne -1.000000 -Nl MAC -Nw --- -Ma 0 -Md ffffffff -Ms 4 -Mt 800 -Is 4.255 -Id -1.255 -It AODV -Il 106 -If 0 -Ii 0 -Iv 25 -P aodv -Pt 0x2 -Ph 6 -Pb 1 -Pd 9 -Pds 0 -Ps 0 -Pss 4 -Pc REQUEST 
s -t 1.017820721 -Hs 8 -Hd -2 -Ni 8 -Nx 300.00 -Ny 300.00 -Nz 0.00 -Ne -1.000000 -Nl RTR -Nw --- -Ma 0 -Md ffffffff -Ms 7 -Mt 800 -Is 8.255 -Id -1.255 -It AODV -Il 48 -If 0 -Ii 0 -Iv 26 -P aodv -Pt 0x2 -Ph 5 -Pb 1 -Pd 9 -Pds 0 -Ps 0 -Pss 4 -Pc REQUEST 
r -t 1.018253303 -Hs 3 -Hd -2 -Ni 3 -Nx 400.00 -Ny 100.00 -Nz 0.00 -Ne -1.000000 -Nl MAC -Nw --- -Ma 0 -Md ffffffff -Ms 4 -Mt 800 -Is 4.255 -Id -1.255 -It AODV -Il 48 -If 0 -Ii 0 -Iv 25 -P aodv -Pt 0x2 -Ph 6 -Pb 1 -Pd 9 -Pds 0 -Ps 0 -Pss 4 -Pc REQUEST 
r -t 1.018253381 -Hs 9 -Hd -2 -Ni 9 -Nx 100.00 -Ny 300.00 -Nz 0.00 -Ne -1.000000 -Nl MAC -Nw --- -Ma 0 -Md ffffffff -Ms 4 -Mt 800 -Is 4.255 -Id -1.255 -It AODV -Il 48 -If 0 -Ii 0 -Iv 25 -P aodv -Pt 0x2 -Ph 6 -Pb 1 -Pd 9 -Pds 0 -Ps 0 -Pss 4 -Pc REQUEST 
r -t 1.018253381 -Hs 8 -Hd -2 -Ni 8 -Nx 300.00 -Ny 300.00 -Nz 0.00 -Ne -1.000000 -Nl MAC -Nw --- -Ma 0 -Md ffffffff -Ms 4 -Mt 800 -Is 4.255 -Id -1.255 -It AODV -Il 48 -If 0 -Ii 0 -Iv 25 -P aodv -Pt 0x2 -Ph 6 -Pb 1 -Pd 9 -Pds 0 -Ps 0 -Pss 4 -Pc REQUEST 
r -t 1.018278303 -Hs 3 -Hd -2 -Ni 3 -Nx 400.00 -Ny 100.00 -Nz 0.00 -Ne -1.000000 -Nl RTR -Nw --- -Ma 0 -Md ffffffff -Ms 4 -Mt 800 -Is 4.255 -Id -1.255 -It AODV -Il 48 -If 0 -Ii 0 -Iv 25 -P aodv -Pt 0x2 -Ph 6 -Pb 1 -Pd 9 -Pds 0 -Ps 0 -Pss 4 -Pc REQUEST 
r -t 1.018278381 -Hs 9 -Hd -2 -Ni 9 -Nx 100.00 -Ny 300.00 -Nz 0.00 -Ne -1.000000 -Nl RTR -Nw --- -Ma 0 -Md ffffffff -Ms 4 -Mt 800 -Is 4.255 -Id -1.255 -It AODV -Il 48 -If 0 -Ii 0 -Iv 25 -P aodv -Pt 0x2 -Ph 6 -Pb 1 -Pd 9 -Pds 0 -Ps 0 -Pss 4 -Pc REQUEST 
r -t 1.018278381 -Hs 8 -Hd -2 -Ni 8 -Nx 300.00 -Ny 300.00 -Nz 0.00 -Ne -1.000000 -Nl RTR -Nw --- -Ma 0 -Md ffffffff -Ms 4 -Mt 800 -Is 4.255 -Id -1.255 -It AODV -Il 48 -If 0 -Ii 0 -Iv 25 -P aodv -Pt 0x2 -Ph 6 -Pb 1 -Pd 9 -Pds 0 -Ps 0 -Pss 4 -Pc REQUEST 
s -t 1.018278381 -Hs 9 -Hd 4 -Ni 9 -Nx 100.00 -Ny 300.00 -Nz 0.00 -Ne -1.000000 -Nl RTR -Nw --- -Ma 0 -Md 0 -Ms 0 -Mt 0 -Is 9.255 -Id 0.255 -It AODV -Il 44 -If 0 -Ii 0 -Iv 30 -P aodv -Pt 0x4 -Ph 1 -Pd 9 -Pds 4 -Pl 10.000000 -Pc REPLY 
s -t 1.018513381 -Hs 9 -Hd -2 -Ni 9 -Nx 100.00 -Ny 300.00 -Nz 0.00 -Ne -1.000000 -Nl MAC -Nw --- -Ma 0 -Md ffffffff -Ms 9 -Mt 806 -P arp -Po REQUEST -Pms 9 -Ps 9 -Pmd 0 -Pd 4 
r -t 1.019202048 -Hs 8 -Hd -2 -Ni 8 -Nx 300.00 -Ny 300.00 -Nz 0.00 -Ne -1.000000 -Nl MAC -Nw --- -Ma 0 -Md ffffffff -Ms 9 -Mt 806 -P arp -Po REQUEST -Pms 9 -Ps 9 -Pmd 0 -Pd 4 
r -t 1.019202127 -Hs 4 -Hd -2 -Ni 4 -Nx 200.00 -Ny 100.00 -Nz 0.00 -Ne -1.000000 -Nl MAC -Nw --- -Ma 0 -Md ffffffff -Ms 9 -Mt 806 -P arp -Po REQUEST -Pms 9 -Ps 9 -Pmd 0 -Pd 4 
s -t 1.019292048 -Hs 8 -Hd -2 -Ni 8 -Nx 300.00 -Ny 300.00 -Nz 0.00 -Ne -1.000000 -Nl MAC -Nw --- -Ma 0 -Md ffffffff -Ms 8 -Mt 800 -Is 8.255 -Id -1.255 -It AODV -Il 106 -If 0 -Ii 0 -Iv 26 -P aodv -Pt 0x2 -Ph 5 -Pb 1 -Pd 9 -Pds 0 -Ps 0 -Pss 4 -Pc REQUEST 
r -t 1.020140715 -Hs 9 -Hd -2 -Ni 9 -Nx 100.00 -Ny 300.00 -Nz 0.00 -Ne -1.000000 -Nl MAC -Nw --- -Ma 0 -Md ffffffff -Ms 8 -Mt 800 -Is 8.255 -Id -1.255 -It AODV -Il 48 -If 0 -Ii 0 -Iv 26 -P aodv -Pt 0x2 -Ph 5 -Pb 1 -Pd 9 -Pds 0 -Ps 0 -Pss 4 -Pc REQUEST 
r -t 1.020140715 -Hs 7 -Hd -2 -Ni 7 -Nx 500.00 -Ny 300.00 -Nz 0.00 -Ne -1.000000 -Nl MAC -Nw --- -Ma 0 -Md ffffffff -Ms 8 -Mt 800 -Is 8.255 -Id -1.255 -It AODV -Il 48 -If 0 -Ii 0 -Iv 26 -P aodv -Pt 0x2 -Ph 5 -Pb 1 -Pd 9 -Pds 0 -Ps 0 -Pss 4 -Pc REQUEST 
r -t 1.020140793 -Hs 4 -Hd -2 -Ni 4 -Nx 200.00 -Ny 100.00 -Nz 0.00 -Ne -1.000000 -Nl MAC -Nw --- -Ma 0 -Md ffffffff -Ms 8 -Mt 800 -Is 8.255 -Id -1.255 -It AODV -Il 48 -If 0 -Ii 0 -Iv 26 -P aodv -Pt 0x2 -Ph 5 -Pb 1 -Pd 9 -Pds 0 -Ps 0 -Pss 4 -Pc REQUEST 
r -t 1.020140793 -Hs 3 -Hd -2 -Ni 3 -Nx 400.00 -Ny 100.00 -Nz 0.00 -Ne -1.000000 -Nl MAC -Nw --- -Ma 0 -Md ffffffff -Ms 8 -Mt 800 -Is 8.255 -Id -1.255 -It AODV -Il 48 -If 0 -Ii 0 -Iv 26 -P aodv -Pt 0x2 -Ph 5 -Pb 1 -Pd 9 -Pds 0 -Ps 0 -Pss 4 -Pc REQUEST 
r -t 1.020165715 -Hs 9 -Hd -2 -Ni 9 -Nx 100.00 -Ny 300.00 -Nz 0.00 -Ne -1.000000 -Nl RTR -Nw --- -Ma 0 -Md ffffffff -Ms 8 -Mt 800 -Is 8.255 -Id -1.255 -It AODV -Il 48 -If 0 -Ii 0 -Iv 26 -P aodv -Pt 0x2 -Ph 5 -Pb 1 -Pd 9 -Pds 0 -Ps 0 -Pss 4 -Pc REQUEST 
r -t 1.020165715 -Hs 7 -Hd -2 -Ni 7 -Nx 500.00 -Ny 300.00 -Nz 0.00 -Ne -1.000000 -Nl RTR -Nw --- -Ma 0 -Md ffffffff -Ms 8 -Mt 800 -Is 8.255 -Id -1.255 -It AODV -Il 48 -If 0 -Ii 0 -Iv 26 -P aodv -Pt 0x2 -Ph 5 -Pb 1 -Pd 9 -Pds 0 -Ps 0 -Pss 4 -Pc REQUEST 
r -t 1.020165793 -Hs 4 -Hd -2 -Ni 4 -Nx 200.00 -Ny 100.00 -Nz 0.00 -Ne -1.000000 -Nl RTR -Nw --- -Ma 0 -Md ffffffff -Ms 8 -Mt 800 -Is 8.255 -Id -1.255 -It AODV -Il 48 -If 0 -Ii 0 -Iv 26 -P aodv -Pt 0x2 -Ph 5 -Pb 1 -Pd 9 -Pds 0 -Ps 0 -Pss 4 -Pc REQUEST 
r -t 1.020165793 -Hs 3 -Hd -2 -Ni 3 -Nx 400.00 -Ny 100.00 -Nz 0.00 -Ne -1.000000 -Nl RTR -Nw --- -Ma 0 -Md ffffffff -Ms 8 -Mt 800 -Is 8.255 -Id -1.255 -It AODV -Il 48 -If 0 -Ii 0 -Iv 26 -P aodv -Pt 0x2 -Ph 5 -Pb 1 -Pd 9 -Pds 0 -Ps 0 -Pss 4 -Pc REQUEST 
s -t 1.020390793 -Hs 4 -Hd -2 -Ni 4 -Nx 200.00 -Ny 100.00 -Nz 0.00 -Ne -1.000000 -Nl MAC -Nw --- -Ma 52e -Md 9 -Ms 4 -Mt 0 
r -t 1.020743539 -Hs 9 -Hd -2 -Ni 9 -Nx 100.00 -Ny 300.00 -Nz 0.00 -Ne -1.000000 -Nl MAC -Nw --- -Ma 52e -Md 9 -Ms 4 -Mt 0 
s -t 1.020753539 -Hs 9 -Hd -2 -Ni 9 -Nx 100.00 -Ny 300.00 -Nz 0.00 -Ne -1.000000 -Nl MAC -Nw --- -Ma 3f4 -Md 4 -Ms 0 -Mt 0 
r -t 1.021058284 -Hs 4 -Hd -2 -Ni 4 -Nx 200.00 -Ny 100.00 -Nz 0.00 -Ne -1.000000 -Nl MAC -Nw --- -Ma 3f4 -Md 4 -Ms 0 -Mt 0 
s -t 1.021068284 -Hs 4 -Hd -2 -Ni 4 -Nx 200.00 -Ny 100.00 -Nz 0.00 -Ne -1.000000 -Nl MAC -Nw --- -Ma 13a -Md 9 -Ms 4 -Mt 806 -P arp -Po REPLY -Pms 4 -Ps 4 -Pmd 9 -Pd 9 
r -t 1.021757029 -Hs 9 -Hd -2 -Ni 9 -Nx 100.00 -Ny 300.00 -Nz 0.00 -Ne -1.000000 -Nl MAC -Nw --- -Ma 13a -Md 9 -Ms 4 -Mt 806 -P arp -Po REPLY -Pms 4 -Ps 4 -Pmd 9 -Pd 9 
s -t 1.021767029 -Hs 9 -Hd -2 -Ni 9 -Nx 100.00 -Ny 300.00 -Nz 0.00 -Ne -1.000000 -Nl MAC -Nw --- -Ma 0 -Md 4 -Ms 0 -Mt 0 
r -t 1.022071775 -Hs 4 -Hd -2 -Ni 4 -Nx 200.00 -Ny 100.00 -Nz 0.00 -Ne -1.000000 -Nl MAC -Nw --- -Ma 0 -Md 4 -Ms 0 -Mt 0 
s -t 1.022461029 -Hs 9 -Hd -2 -Ni 9 -Nx 100.00 -Ny 300.00 -Nz 0.00 -Ne -1.000000 -Nl MAC -Nw --- -Ma 5ae -Md 4 -Ms 9 -Mt 0 
r -t 1.022813775 -Hs 4 -Hd -2 -Ni 4 -Nx 200.00 -Ny 100.00 -Nz 0.00 -Ne -1.000000 -Nl MAC -Nw --- -Ma 5ae -Md 4 -Ms 9 -Mt 0 
s -t 1.022823775 -Hs 4 -Hd -2 -Ni 4 -Nx 200.00 -Ny 100.00 -Nz 0.00 -Ne -1.000000 -Nl MAC -Nw --- -Ma 474 -Md 9 -Ms 0 -Mt 0 
r -t 1.023128520 -Hs 9 -Hd -2 -Ni 9 -Nx 100.00 -Ny 300.00 -Nz 0.00 -Ne -1.000000 -Nl MAC -Nw --- -Ma 474 -Md 9 -Ms 0 -Mt 0 
s -t 1.023138520 -Hs 9 -Hd 4 -Ni 9 -Nx 100.00 -Ny 300.00 -Nz 0.00 -Ne -1.000000 -Nl MAC -Nw --- -Ma 13a -Md 4 -Ms 9 -Mt 800 -Is 9.255 -Id 0.255 -It AODV -Il 102 -If 0 -Ii 0 -Iv 30 -P aodv -Pt 0x4 -Ph 1 -Pd 9 -Pds 4 -Pl 10.000000 -Pc REPLY 
r -t 1.023955265 -Hs 4 -Hd 4 -Ni 4 -Nx 200.00 -Ny 100.00 -Nz 0.00 -Ne -1.000000 -Nl MAC -Nw --- -Ma 13a -Md 4 -Ms 9 -Mt 800 -Is 9.255 -Id 0.255 -It AODV -Il 44 -If 0 -Ii 0 -Iv 30 -P aodv -Pt 0x4 -Ph 1 -Pd 9 -Pds 4 -Pl 10.000000 -Pc REPLY 
s -t 1.023965265 -Hs 4 -Hd -2 -Ni 4 -Nx 200.00 -Ny 100.00 -Nz 0.00 -Ne -1.000000 -Nl MAC -Nw --- -Ma 0 -Md 9 -Ms 0 -Mt 0 
r -t 1.023980265 -Hs 4 -Hd 4 -Ni 4 -Nx 200.00 -Ny 100.00 -Nz 0.00 -Ne -1.000000 -Nl RTR -Nw --- -Ma 13a -Md 4 -Ms 9 -Mt 800 -Is 9.255 -Id 0.255 -It AODV -Il 44 -If 0 -Ii 0 -Iv 30 -P aodv -Pt 0x4 -Ph 1 -Pd 9 -Pds 4 -Pl 10.000000 -Pc REPLY 
f -t 1.023980265 -Hs 4 -Hd 3 -Ni 4 -Nx 200.00 -Ny 100.00 -Nz 0.00 -Ne -1.000000 -Nl RTR -Nw --- -Ma 13a -Md 4 -Ms 9 -Mt 800 -Is 9.255 -Id 0.255 -It AODV -Il 44 -If 0 -Ii 0 -Iv 29 -P aodv -Pt 0x4 -Ph 2 -Pd 9 -Pds 4 -Pl 10.000000 -Pc REPLY 
r -t 1.024270011 -Hs 9 -Hd -2 -Ni 9 -Nx 100.00 -Ny 300.00 -Nz 0.00 -Ne -1.000000 -Nl MAC -Nw --- -Ma 0 -Md 9 -Ms 0 -Mt 0 
s -t 1.024539265 -Hs 4 -Hd -2 -Ni 4 -Nx 200.00 -Ny 100.00 -Nz 0.00 -Ne -1.000000 -Nl MAC -Nw --- -Ma 0 -Md ffffffff -Ms 4 -Mt 806 -P arp -Po REQUEST -Pms 4 -Ps 4 -Pmd 0 -Pd 3 
r -t 1.025227932 -Hs 3 -Hd -2 -Ni 3 -Nx 400.00 -Ny 100.00 -Nz 0.00 -Ne -1.000000 -Nl MAC -Nw --- -Ma 0 -Md ffffffff -Ms 4 -Mt 806 -P arp -Po REQUEST -Pms 4 -Ps 4 -Pmd 0 -Pd 3 
r -t 1.025228011 -Hs 9 -Hd -2 -Ni 9 -Nx 100.00 -Ny 300.00 -Nz 0.00 -Ne -1.000000 -Nl MAC -Nw --- -Ma 0 -Md ffffffff -Ms 4 -Mt 806 -P arp -Po REQUEST -Pms 4 -Ps 4 -Pmd 0 -Pd 3 
r -t 1.025228011 -Hs 8 -Hd -2 -Ni 8 -Nx 300.00 -Ny 300.00 -Nz 0.00 -Ne -1.000000 -Nl MAC -Nw --- -Ma 0 -Md ffffffff -Ms 4 -Mt 806 -P arp -Po REQUEST -Pms 4 -Ps 4 -Pmd 0 -Pd 3 
s -t 1.025582932 -Hs 3 -Hd -2 -Ni 3 -Nx 400.00 -Ny 100.00 -Nz 0.00 -Ne -1.000000 -Nl MAC -Nw --- -Ma 52e -Md 4 -Ms 3 -Mt 0 
r -t 1.025935599 -Hs 4 -Hd -2 -Ni 4 -Nx 200.00 -Ny 100.00 -Nz 0.00 -Ne -1.000000 -Nl MAC -Nw --- -Ma 52e -Md 4 -Ms 3 -Mt 0 
s -t 1.025945599 -Hs 4 -Hd -2 -Ni 4 -Nx 200.00 -Ny 100.00 -Nz 0.00 -Ne -1.000000 -Nl MAC -Nw --- -Ma 3f4 -Md 3 -Ms 0 -Mt 0 
r -t 1.026250265 -Hs 3 -Hd -2 -Ni 3 -Nx 400.00 -Ny 100.00 -Nz 0.00 -Ne -1.000000 -Nl MAC -Nw --- -Ma 3f4 -Md 3 -Ms 0 -Mt 0 
s -t 1.026260265 -Hs 3 -Hd -2 -Ni 3 -Nx 400.00 -Ny 100.00 -Nz 0.00 -Ne -1.000000 -Nl MAC -Nw --- -Ma 13a -Md 4 -Ms 3 -Mt 806 -P arp -Po REPLY -Pms 3 -Ps 3 -Pmd 4 -Pd 4 
r -t 1.026948932 -Hs 4 -Hd -2 -Ni 4 -Nx 200.00 -Ny 100.00 -Nz 0.00 -Ne -1.000000 -Nl MAC -Nw --- -Ma 13a -Md 4 -Ms 3 -Mt 806 -P arp -Po REPLY -Pms 3 -Ps 3 -Pmd 4 -Pd 4 
s -t 1.026958932 -Hs 4 -Hd -2 -Ni 4 -Nx 200.00 -Ny 100.00 -Nz 0.00 -Ne -1.000000 -Nl MAC -Nw --- -Ma 0 -Md 3 -Ms 0 -Mt 0 
r -t 1.027263599 -Hs 3 -Hd -2 -Ni 3 -Nx 400.00 -Ny 100.00 -Nz 0.00 -Ne -1.000000 -Nl MAC -Nw --- -Ma 0 -Md 3 -Ms 0 -Mt 0 
s -t 1.027672932 -Hs 4 -Hd -2 -Ni 4 -Nx 200.00 -Ny 100.00 -Nz 0.00 -Ne -1.000000 -Nl MAC -Nw --- -Ma 5ae -Md 3 -Ms 4 -Mt 0 
r -t 1.028025599 -Hs 3 -Hd -2 -Ni 3 -Nx 400.00 -Ny 100.00 -Nz 0.00 -Ne -1.000000 -Nl MAC -Nw --- -Ma 5ae -Md 3 -Ms 4 -Mt 0 
s -t 1.028035599 -Hs 3 -Hd -2 -Ni 3 -Nx 400.00 -Ny 100.00 -Nz 0.00 -Ne -1.000000 -Nl MAC -Nw --- -Ma 474 -Md 4 -Ms 0 -Mt 0 
r -t 1.028340265 -Hs 4 -Hd -2 -Ni 4 -Nx 200.00 -Ny 100.00 -Nz 0.00 -Ne -1.000000 -Nl MAC -Nw --- -Ma 474 -Md 4 -Ms 0 -Mt 0 
s -t 1.028350265 -Hs 4 -Hd 3 -Ni 4 -Nx 200.00 -Ny 100.00 -Nz 0.00 -Ne -1.000000 -Nl MAC -Nw --- -Ma 13a -Md 3 -Ms 4 -Mt 800 -Is 9.255 -Id 0.255 -It AODV -Il 102 -If 0 -Ii 0 -Iv 29 -P aodv -Pt 0x4 -Ph 2 -Pd 9 -Pds 4 -Pl 10.000000 -Pc REPLY 
r -t 1.029166932 -Hs 3 -Hd 3 -Ni 3 -Nx 400.00 -Ny 100.00 -Nz 0.00 -Ne -1.000000 -Nl MAC -Nw --- -Ma 13a -Md 3 -Ms 4 -Mt 800 -Is 9.255 -Id 0.255 -It AODV -Il 44 -If 0 -Ii 0 -Iv 29 -P aodv -Pt 0x4 -Ph 2 -Pd 9 -Pds 4 -Pl 10.000000 -Pc REPLY 
s -t 1.029176932 -Hs 3 -Hd -2 -Ni 3 -Nx 400.00 -Ny 100.00 -Nz 0.00 -Ne -1.000000 -Nl MAC -Nw --- -Ma 0 -Md 4 -Ms 0 -Mt 0 
r -t 1.029191932 -Hs 3 -Hd 3 -Ni 3 -Nx 400.00 -Ny 100.00 -Nz 0.00 -Ne -1.000000 -Nl RTR -Nw --- -Ma 13a -Md 3 -Ms 4 -Mt 800 -Is 9.255 -Id 0.255 -It AODV -Il 44 -If 0 -Ii 0 -Iv 29 -P aodv -Pt 0x4 -Ph 2 -Pd 9 -Pds 4 -Pl 10.000000 -Pc REPLY 
f -t 1.029191932 -Hs 3 -Hd 7 -Ni 3 -Nx 400.00 -Ny 100.00 -Nz 0.00 -Ne -1.000000 -Nl RTR -Nw --- -Ma 13a -Md 3 -Ms 4 -Mt 800 -Is 9.255 -Id 0.255 -It AODV -Il 44 -If 0 -Ii 0 -Iv 28 -P aodv -Pt 0x4 -Ph 3 -Pd 9 -Pds 4 -Pl 10.000000 -Pc REPLY 
r -t 1.029481599 -Hs 4 -Hd -2 -Ni 4 -Nx 200.00 -Ny 100.00 -Nz 0.00 -Ne -1.000000 -Nl MAC -Nw --- -Ma 0 -Md 4 -Ms 0 -Mt 0 
s -t 1.029610932 -Hs 3 -Hd -2 -Ni 3 -Nx 400.00 -Ny 100.00 -Nz 0.00 -Ne -1.000000 -Nl MAC -Nw --- -Ma 0 -Md ffffffff -Ms 3 -Mt 806 -P arp -Po REQUEST -Pms 3 -Ps 3 -Pmd 0 -Pd 7 
r -t 1.030299599 -Hs 4 -Hd -2 -Ni 4 -Nx 200.00 -Ny 100.00 -Nz 0.00 -Ne -1.000000 -Nl MAC -Nw --- -Ma 0 -Md ffffffff -Ms 3 -Mt 806 -P arp -Po REQUEST -Pms 3 -Ps 3 -Pmd 0 -Pd 7 
r -t 1.030299599 -Hs 2 -Hd -2 -Ni 2 -Nx 600.00 -Ny 100.00 -Nz 0.00 -Ne -1.000000 -Nl MAC -Nw --- -Ma 0 -Md ffffffff -Ms 3 -Mt 806 -P arp -Po REQUEST -Pms 3 -Ps 3 -Pmd 0 -Pd 7 
r -t 1.030299677 -Hs 8 -Hd -2 -Ni 8 -Nx 300.00 -Ny 300.00 -Nz 0.00 -Ne -1.000000 -Nl MAC -Nw --- -Ma 0 -Md ffffffff -Ms 3 -Mt 806 -P arp -Po REQUEST -Pms 3 -Ps 3 -Pmd 0 -Pd 7 
r -t 1.030299677 -Hs 7 -Hd -2 -Ni 7 -Nx 500.00 -Ny 300.00 -Nz 0.00 -Ne -1.000000 -Nl MAC -Nw --- -Ma 0 -Md ffffffff -Ms 3 -Mt 806 -P arp -Po REQUEST -Pms 3 -Ps 3 -Pmd 0 -Pd 7 
s -t 1.030454677 -Hs 7 -Hd -2 -Ni 7 -Nx 500.00 -Ny 300.00 -Nz 0.00 -Ne -1.000000 -Nl MAC -Nw --- -Ma 52e -Md 3 -Ms 7 -Mt 0 
r -t 1.030807423 -Hs 3 -Hd -2 -Ni 3 -Nx 400.00 -Ny 100.00 -Nz 0.00 -Ne -1.000000 -Nl MAC -Nw --- -Ma 52e -Md 3 -Ms 7 -Mt 0 
s -t 1.030817423 -Hs 3 -Hd -2 -Ni 3 -Nx 400.00 -Ny 100.00 -Nz 0.00 -Ne -1.000000 -Nl MAC -Nw --- -Ma 3f4 -Md 7 -Ms 0 -Mt 0 
r -t 1.031122168 -Hs 7 -Hd -2 -Ni 7 -Nx 500.00 -Ny 300.00 -Nz 0.00 -Ne -1.000000 -Nl MAC -Nw --- -Ma 3f4 -Md 7 -Ms 0 -Mt 0 
s -t 1.031132168 -Hs 7 -Hd -2 -Ni 7 -Nx 500.00 -Ny 300.00 -Nz 0.00 -Ne -1.000000 -Nl MAC -Nw --- -Ma 13a -Md 3 -Ms 7 -Mt 806 -P arp -Po REPLY -Pms 7 -Ps 7 -Pmd 3 -Pd 3 
r -t 1.031820913 -Hs 3 -Hd -2 -Ni 3 -Nx 400.00 -Ny 100.00 -Nz 0.00 -Ne -1.000000 -Nl MAC -Nw --- -Ma 13a -Md 3 -Ms 7 -Mt 806 -P arp -Po REPLY -Pms 7 -Ps 7 -Pmd 3 -Pd 3 